<?xml version="1.0"?>
<VTKFile type="UnstructuredGrid"  version="0.1"  >
<UnstructuredGrid>
<Piece  NumberOfPoints="441" NumberOfCells="800">
<Points>
<DataArray  type="Float64"  NumberOfComponents="3"  format="ascii">0 0 0  0.05 0 0  0.1 0 0  0.15 0 0  0.2 0 0  0.25 0 0  0.3 0 0  0.35 0 0  0.4 0 0  0.45 0 0  0.5 0 0  0.55 0 0  0.6 0 0  0.65 0 0  0.7 0 0  0.75 0 0  0.8 0 0  0.85 0 0  0.9 0 0  0.95 0 0  1 0 0  0 0.05 0  0.05 0.05 0  0.1 0.05 0  0.15 0.05 0  0.2 0.05 0  0.25 0.05 0  0.3 0.05 0  0.35 0.05 0  0.4 0.05 0  0.45 0.05 0  0.5 0.05 0  0.55 0.05 0  0.6 0.05 0  0.65 0.05 0  0.7 0.05 0  0.75 0.05 0  0.8 0.05 0  0.85 0.05 0  0.9 0.05 0  0.95 0.05 0  1 0.05 0  0 0.1 0  0.05 0.1 0  0.1 0.1 0  0.15 0.1 0  0.2 0.1 0  0.25 0.1 0  0.3 0.1 0  0.35 0.1 0  0.4 0.1 0  0.45 0.1 0  0.5 0.1 0  0.55 0.1 0  0.6 0.1 0  0.65 0.1 0  0.7 0.1 0  0.75 0.1 0  0.8 0.1 0  0.85 0.1 0  0.9 0.1 0  0.95 0.1 0  1 0.1 0  0 0.15 0  0.05 0.15 0  0.1 0.15 0  0.15 0.15 0  0.2 0.15 0  0.25 0.15 0  0.3 0.15 0  0.35 0.15 0  0.4 0.15 0  0.45 0.15 0  0.5 0.15 0  0.55 0.15 0  0.6 0.15 0  0.65 0.15 0  0.7 0.15 0  0.75 0.15 0  0.8 0.15 0  0.85 0.15 0  0.9 0.15 0  0.95 0.15 0  1 0.15 0  0 0.2 0  0.05 0.2 0  0.1 0.2 0  0.15 0.2 0  0.2 0.2 0  0.25 0.2 0  0.3 0.2 0  0.35 0.2 0  0.4 0.2 0  0.45 0.2 0  0.5 0.2 0  0.55 0.2 0  0.6 0.2 0  0.65 0.2 0  0.7 0.2 0  0.75 0.2 0  0.8 0.2 0  0.85 0.2 0  0.9 0.2 0  0.95 0.2 0  1 0.2 0  0 0.25 0  0.05 0.25 0  0.1 0.25 0  0.15 0.25 0  0.2 0.25 0  0.25 0.25 0  0.3 0.25 0  0.35 0.25 0  0.4 0.25 0  0.45 0.25 0  0.5 0.25 0  0.55 0.25 0  0.6 0.25 0  0.65 0.25 0  0.7 0.25 0  0.75 0.25 0  0.8 0.25 0  0.85 0.25 0  0.9 0.25 0  0.95 0.25 0  1 0.25 0  0 0.3 0  0.05 0.3 0  0.1 0.3 0  0.15 0.3 0  0.2 0.3 0  0.25 0.3 0  0.3 0.3 0  0.35 0.3 0  0.4 0.3 0  0.45 0.3 0  0.5 0.3 0  0.55 0.3 0  0.6 0.3 0  0.65 0.3 0  0.7 0.3 0  0.75 0.3 0  0.8 0.3 0  0.85 0.3 0  0.9 0.3 0  0.95 0.3 0  1 0.3 0  0 0.35 0  0.05 0.35 0  0.1 0.35 0  0.15 0.35 0  0.2 0.35 0  0.25 0.35 0  0.3 0.35 0  0.35 0.35 0  0.4 0.35 0  0.45 0.35 0  0.5 0.35 0  0.55 0.35 0  0.6 0.35 0  0.65 0.35 0  0.7 0.35 0  0.75 0.35 0  0.8 0.35 0  0.85 0.35 0  0.9 0.35 0  0.95 0.35 0  1 0.35 0  0 0.4 0  0.05 0.4 0  0.1 0.4 0  0.15 0.4 0  0.2 0.4 0  0.25 0.4 0  0.3 0.4 0  0.35 0.4 0  0.4 0.4 0  0.45 0.4 0  0.5 0.4 0  0.55 0.4 0  0.6 0.4 0  0.65 0.4 0  0.7 0.4 0  0.75 0.4 0  0.8 0.4 0  0.85 0.4 0  0.9 0.4 0  0.95 0.4 0  1 0.4 0  0 0.45 0  0.05 0.45 0  0.1 0.45 0  0.15 0.45 0  0.2 0.45 0  0.25 0.45 0  0.3 0.45 0  0.35 0.45 0  0.4 0.45 0  0.45 0.45 0  0.5 0.45 0  0.55 0.45 0  0.6 0.45 0  0.65 0.45 0  0.7 0.45 0  0.75 0.45 0  0.8 0.45 0  0.85 0.45 0  0.9 0.45 0  0.95 0.45 0  1 0.45 0  0 0.5 0  0.05 0.5 0  0.1 0.5 0  0.15 0.5 0  0.2 0.5 0  0.25 0.5 0  0.3 0.5 0  0.35 0.5 0  0.4 0.5 0  0.45 0.5 0  0.5 0.5 0  0.55 0.5 0  0.6 0.5 0  0.65 0.5 0  0.7 0.5 0  0.75 0.5 0  0.8 0.5 0  0.85 0.5 0  0.9 0.5 0  0.95 0.5 0  1 0.5 0  0 0.55 0  0.05 0.55 0  0.1 0.55 0  0.15 0.55 0  0.2 0.55 0  0.25 0.55 0  0.3 0.55 0  0.35 0.55 0  0.4 0.55 0  0.45 0.55 0  0.5 0.55 0  0.55 0.55 0  0.6 0.55 0  0.65 0.55 0  0.7 0.55 0  0.75 0.55 0  0.8 0.55 0  0.85 0.55 0  0.9 0.55 0  0.95 0.55 0  1 0.55 0  0 0.6 0  0.05 0.6 0  0.1 0.6 0  0.15 0.6 0  0.2 0.6 0  0.25 0.6 0  0.3 0.6 0  0.35 0.6 0  0.4 0.6 0  0.45 0.6 0  0.5 0.6 0  0.55 0.6 0  0.6 0.6 0  0.65 0.6 0  0.7 0.6 0  0.75 0.6 0  0.8 0.6 0  0.85 0.6 0  0.9 0.6 0  0.95 0.6 0  1 0.6 0  0 0.65 0  0.05 0.65 0  0.1 0.65 0  0.15 0.65 0  0.2 0.65 0  0.25 0.65 0  0.3 0.65 0  0.35 0.65 0  0.4 0.65 0  0.45 0.65 0  0.5 0.65 0  0.55 0.65 0  0.6 0.65 0  0.65 0.65 0  0.7 0.65 0  0.75 0.65 0  0.8 0.65 0  0.85 0.65 0  0.9 0.65 0  0.95 0.65 0  1 0.65 0  0 0.7 0  0.05 0.7 0  0.1 0.7 0  0.15 0.7 0  0.2 0.7 0  0.25 0.7 0  0.3 0.7 0  0.35 0.7 0  0.4 0.7 0  0.45 0.7 0  0.5 0.7 0  0.55 0.7 0  0.6 0.7 0  0.65 0.7 0  0.7 0.7 0  0.75 0.7 0  0.8 0.7 0  0.85 0.7 0  0.9 0.7 0  0.95 0.7 0  1 0.7 0  0 0.75 0  0.05 0.75 0  0.1 0.75 0  0.15 0.75 0  0.2 0.75 0  0.25 0.75 0  0.3 0.75 0  0.35 0.75 0  0.4 0.75 0  0.45 0.75 0  0.5 0.75 0  0.55 0.75 0  0.6 0.75 0  0.65 0.75 0  0.7 0.75 0  0.75 0.75 0  0.8 0.75 0  0.85 0.75 0  0.9 0.75 0  0.95 0.75 0  1 0.75 0  0 0.8 0  0.05 0.8 0  0.1 0.8 0  0.15 0.8 0  0.2 0.8 0  0.25 0.8 0  0.3 0.8 0  0.35 0.8 0  0.4 0.8 0  0.45 0.8 0  0.5 0.8 0  0.55 0.8 0  0.6 0.8 0  0.65 0.8 0  0.7 0.8 0  0.75 0.8 0  0.8 0.8 0  0.85 0.8 0  0.9 0.8 0  0.95 0.8 0  1 0.8 0  0 0.85 0  0.05 0.85 0  0.1 0.85 0  0.15 0.85 0  0.2 0.85 0  0.25 0.85 0  0.3 0.85 0  0.35 0.85 0  0.4 0.85 0  0.45 0.85 0  0.5 0.85 0  0.55 0.85 0  0.6 0.85 0  0.65 0.85 0  0.7 0.85 0  0.75 0.85 0  0.8 0.85 0  0.85 0.85 0  0.9 0.85 0  0.95 0.85 0  1 0.85 0  0 0.9 0  0.05 0.9 0  0.1 0.9 0  0.15 0.9 0  0.2 0.9 0  0.25 0.9 0  0.3 0.9 0  0.35 0.9 0  0.4 0.9 0  0.45 0.9 0  0.5 0.9 0  0.55 0.9 0  0.6 0.9 0  0.65 0.9 0  0.7 0.9 0  0.75 0.9 0  0.8 0.9 0  0.85 0.9 0  0.9 0.9 0  0.95 0.9 0  1 0.9 0  0 0.95 0  0.05 0.95 0  0.1 0.95 0  0.15 0.95 0  0.2 0.95 0  0.25 0.95 0  0.3 0.95 0  0.35 0.95 0  0.4 0.95 0  0.45 0.95 0  0.5 0.95 0  0.55 0.95 0  0.6 0.95 0  0.65 0.95 0  0.7 0.95 0  0.75 0.95 0  0.8 0.95 0  0.85 0.95 0  0.9 0.95 0  0.95 0.95 0  1 0.95 0  0 1 0  0.05 1 0  0.1 1 0  0.15 1 0  0.2 1 0  0.25 1 0  0.3 1 0  0.35 1 0  0.4 1 0  0.45 1 0  0.5 1 0  0.55 1 0  0.6 1 0  0.65 1 0  0.7 1 0  0.75 1 0  0.8 1 0  0.85 1 0  0.9 1 0  0.95 1 0  1 1 0  </DataArray>
</Points>
<Cells>
[...]
<PointData  Scalars="u"> 
<DataArray  type="Float64"  Name="u"  format="ascii">0.0000000000000000e+00  0.0000000000000000e+00  0.0000000000000000e+00  0.0000000000000000e+00  0.0000000000000000e+00  0.0000000000000000e+00  0.0000000000000000e+00  0.0000000000000000e+00  0.0000000000000000e+00  0.0000000000000000e+00  0.0000000000000000e+00  0.0000000000000000e+00  0.0000000000000000e+00  0.0000000000000000e+00  0.0000000000000000e+00  0.0000000000000000e+00  0.0000000000000000e+00  0.0000000000000000e+00  0.0000000000000000e+00  0.0000000000000000e+00  0.0000000000000000e+00  0.0000000000000000e+00  0.0000000000000000e+00  0.0000000000000000e+00  0.0000000000000000e+00  0.0000000000000000e+00  0.0000000000000000e+00  0.0000000000000000e+00  0.0000000000000000e+00  0.0000000000000000e+00  0.0000000000000000e+00  3.5547007221148839e-16  3.8365076339095922e-16  4.6665200571925806e-16  5.2580138873400686e-16  6.3269131557418236e-16  6.6086338643925743e-16  7.4688328316860677e-16  6.7506214410659725e-16  5.9671980330959010e-16  4.9555797638823908e-16  3.8890959351840125e-16  0.0000000000000000e+00  0.0000000000000000e+00  0.0000000000000000e+00  0.0000000000000000e+00  0.0000000000000000e+00  0.0000000000000000e+00  0.0000000000000000e+00  3.3391242534840796e-16  3.5413188436262302e-16  5.3409339811265733e-16  6.0343677804871191e-16  7.3526485556818668e-16  9.6848789437668123e-16  1.0460641184709493e-15  1.1655740069654286e-15  1.2218490353567948e-15  1.1874372143085557e-15  1.1721944544135525e-15  1.0742029946820502e-15  8.8436944410820094e-16  6.8031542802913280e-16  0.0000000000000000e+00  0.0000000000000000e+00  0.0000000000000000e+00  0.0000000000000000e+00  0.0000000000000000e+00  0.0000000000000000e+00  0.0000000000000000e+00  4.5858643225487949e-16  6.7166224571489035e-16  7.7329444501980325e-16  1.1203785209374521e-15  1.2767390654874266e-15  1.4687419664843527e-15  1.5029579678279546e-15  1.5311772072204242e-15  1.6186359609167378e-15  1.4789145758925286e-15  1.4409153176628333e-15  1.2911799960434362e-15  1.1626115616190704e-15  9.7678358051434719e-16  0.0000000000000000e+00  0.0000000000000000e+00  0.0000000000000000e+00  0.0000000000000000e+00  0.0000000000000000e+00  0.0000000000000000e+00  3.9330883289305161e-16  6.0060606659714103e-16  7.9611993292047126e-16  1.0620374927368118e-15  1.4362940667703673e-15  1.4605518417826500e-15  1.7841607109119663e-15  1.8450620394135041e-15  1.8263686586654840e-15  1.7661090785178443e-15  1.5738392809500456e-15  1.4132153025764086e-15  1.2787897221739374e-15  1.1171514737607979e-15  8.6978871470378679e-16  0.0000000000000000e+00  0.0000000000000000e+00  0.0000000000000000e+00  0.0000000000000000e+00  0.0000000000000000e+00  3.0357101713538216e-16  4.3408919508871807e-16  8.0053637899937949e-16  7.5732685960658836e-16  1.0895457591477515e-15  1.3201500575849601e-15  1.5898721773852228e-15  1.4886154369833684e-15  1.8848657236536292e-15  1.7541232341644969e-15  1.5633392452366687e-15  1.2167185131895720e-15  1.2736221228326015e-15  1.2444769923405077e-15  1.1344016142456468e-15  1.1578752232929086e-15  0.0000000000000000e+00  0.0000000000000000e+00  0.0000000000000000e+00  0.0000000000000000e+00  0.0000000000000000e+00  5.6649511717085580e-16  7.7918359735839899e-16  5.9291493215447133e-16  9.7570011267644968e-16  1.2286952011564801e-15  1.1351655098916903e-15  1.4670779530653795e-15  1.5881151671794680e-15  1.6498787631182878e-15  1.4598544434397460e-15  1.3281785467023014e-15  1.1880812178494821e-15  8.6707202179657977e-16  1.0152249617965613e-15  9.2906271820507072e-16  7.7421490690043309e-16  0.0000000000000000e+00  0.0000000000000000e+00  0.0000000000000000e+00  3.1372322366369217e-16  0.0000000000000000e+00  9.3234829548554859e-16  7.4703393102423049e-16  1.3529904321425415e-15  1.4379794141065303e-15  1.3495062794091599e-15  1.3764727605784109e-15  1.3876694569311875e-15  1.3802840317216825e-15  1.2444026036154375e-15  8.8511460163226322e-16  9.0242046816611562e-16  7.2791141033170021e-16  8.3395188075751801e-16  3.2407684072364830e-16  0.0000000000000000e+00  0.0000000000000000e+00  0.0000000000000000e+00  0.0000000000000000e+00  0.0000000000000000e+00  5.0143405115618305e-16  5.8999400524930166e-16  8.8542119658910614e-16  1.0499385097164011e-15  1.6268718382169115e-15  1.4275356154641570e-15  1.6443609777590676e-15  1.5838323282448325e-15  1.2109600739513270e-15  1.3129304757961324e-15  1.1511165594804525e-15  7.7066096669140811e-16  8.8378373224318698e-16  9.5294953610150632e-16  3.9856804997986343e-16  0.0000000000000000e+00  -6.3923601517383520e-16  -9.7133950846318892e-16  0.0000000000000000e+00  0.0000000000000000e+00  4.0914152142357548e-16  3.0781252831551652e-16  6.3232969803195870e-16  1.1484195741096718e-15  9.8037012679141947e-16  1.3097317726543808e-15  1.4265653192396565e-15  1.7794249923724806e-15  1.5475342883497323e-15  1.5576317602408547e-15  1.1909228394820695e-15  1.2868849320595336e-15  1.1859927508764385e-15  8.0822427554558416e-16  6.5327967466654908e-16  0.0000000000000000e+00  -3.8395009704408887e-16  -6.4592852214369411e-16  -8.9387956494969347e-16  0.0000000000000000e+00  0.0000000000000000e+00  0.0000000000000000e+00  0.0000000000000000e+00  1.0145504930749151e-15  1.0430152844325994e-15  1.1453849091212016e-15  1.4410380660054717e-15  1.4307559445733003e-15  1.2835340279505690e-15  1.5529832860104839e-15  1.0837391220566906e-15  1.0331971892541117e-15  8.7699073575036562e-16  5.2275503768630375e-16  0.0000000000000000e+00  -3.9984364930244017e-16  -8.8189006944186031e-16  -8.5891718562606898e-16  -1.1006879389344701e-15  -1.0819257582265722e-15  0.0000000000000000e+00  0.0000000000000000e+00  0.0000000000000000e+00  0.0000000000000000e+00  0.0000000000000000e+00  5.7248042334732201e-16  6.9807525213765751e-16  9.3024794830772755e-16  4.0387054362380774e-16  4.8515401821996068e-16  6.2727440579158891e-16  5.9323029243175498e-16  5.7381171683767774e-16  0.0000000000000000e+00  0.0000000000000000e+00  -5.3028551543168905e-16  -9.1890355553408009e-16  -1.0965339416988766e-15  -1.6173470855665882e-15  -1.3932531360400902e-15  -1.3120602400295192e-15  0.0000000000000000e+00  3.0238083142401541e-16  4.8002466204280246e-16  0.0000000000000000e+00  0.0000000000000000e+00  0.0000000000000000e+00  0.0000000000000000e+00  -4.1774895488439354e-16  -3.3671587841401835e-16  -3.9785228610218579e-16  -3.5604371265297555e-16  -3.7982660564486719e-16  -5.9307541019721730e-16  -8.0246408694162205e-16  -7.1494122561093147e-16  -1.1092861104102103e-15  -1.3711680578041900e-15  -1.2590466644430597e-15  -1.3335677480678178e-15  -9.4745271352621648e-16  -1.1295381971678834e-15  0.0000000000000000e+00  0.0000000000000000e+00  0.0000000000000000e+00  0.0000000000000000e+00  -3.5331554456423092e-16  0.0000000000000000e+00  -4.3649188343528387e-16  -4.2791250555280762e-16  -6.5722261350092109e-16  -9.3597791557836585e-16  -1.4211285447414687e-15  -1.5247820904883774e-15  -1.6788576905135246e-15  -1.2590734592504657e-15  -9.9094730505215529e-16  -1.0836960840793780e-15  -8.2660136762949330e-16  -7.0536138831660488e-16  0.0000000000000000e+00  -6.9574913476081804e-16  -5.8977313614610243e-16  0.0000000000000000e+00  0.0000000000000000e+00  0.0000000000000000e+00  3.9924910284464341e-16  0.0000000000000000e+00  0.0000000000000000e+00  -5.0741467190381388e-16  -8.9525227413355806e-16  -9.0983158118318284e-16  -1.2589198532989080e-15  -1.4921999305168854e-15  -1.6995661499134821e-15  -1.5404637895309225e-15  -1.7745760974831506e-15  -1.2009110171425646e-15  -1.2781141434233138e-15  -6.5727365090339361e-16  -6.4150396417609153e-16  -5.7671450780232792e-16  0.0000000000000000e+00  0.0000000000000000e+00  0.0000000000000000e+00  0.0000000000000000e+00  0.0000000000000000e+00  -4.2226574492473319e-16  0.0000000000000000e+00  0.0000000000000000e+00  0.0000000000000000e+00  -8.1978234774629209e-16  -1.4357924465670747e-15  -1.3747728103341831e-15  -1.8656074456617214e-15  -2.1339173710833197e-15  -2.0185996647765995e-15  -2.3747769510914120e-15  -2.0071933601855637e-15  -1.3905307735527940e-15  -9.4423431246640692e-16  0.0000000000000000e+00  0.0000000000000000e+00  8.1094947785959217e-16  1.0743121539347162e-15  0.0000000000000000e+00  4.0221940759526330e-16  0.0000000000000000e+00  0.0000000000000000e+00  -4.8784254999898837e-16  -4.2578966513106902e-16  -8.5827369710429787e-16  -1.2765462436993446e-15  -1.7722322027061540e-15  -1.9630031657664955e-15  -1.6754344857401819e-15  -2.1571575710646216e-15  -2.0061606625072983e-15  -2.1608579355573659e-15  -1.3491146267145293e-15  -1.0775476535706668e-15  -6.2775955104084364e-16  0.0000000000000000e+00  5.8668062108497650e-16  1.4035361880673874e-15  1.3370536158921347e-15  0.0000000000000000e+00  0.0000000000000000e+00  0.0000000000000000e+00  0.0000000000000000e+00  0.0000000000000000e+00  -9.5649525639154307e-16  -9.3570657910812017e-16  -1.1648194518163202e-15  -1.4791972283393963e-15  -1.3716090984831885e-15  -7.1019424303281286e-16  -8.5490785566860578e-16  -1.2383586553409144e-15  -1.3245315875562347e-15  -1.2581410687224950e-15  -8.1823683034838438e-16  -8.7046525361854904e-16  0.0000000000000000e+00  0.0000000000000000e+00  4.0538589887794591e-16  6.6982332806999657e-16  0.0000000000000000e+00  0.0000000000000000e+00  0.0000000000000000e+00  -6.1429225166897818e-16  -1.0994243911484730e-15  -1.7838767279988921e-15  -1.5620913475041658e-15  -1.2830531542290954e-15  -6.7128035791751368e-16  -1.1496981591076759e-15  -1.1006029593816546e-15  -1.6424436914119309e-15  -1.7265328057520810e-15  -1.6569762986469987e-15  -1.5732762491321200e-15  -1.4983440052415948e-15  -1.2516789145229869e-15  -7.9152511546894818e-16  -7.4819737117410822e-16  -7.1659215563983934e-16  0.0000000000000000e+00  0.0000000000000000e+00  0.0000000000000000e+00  -5.9850278792739641e-16  -1.0058307178811392e-15  -1.1896428374011550e-15  -1.3698335853143526e-15  -1.6629961324672287e-15  -1.5573630684264786e-15  -2.0964583919315094e-15  -2.2758798697791496e-15  -2.2007894498490859e-15  -2.2276420645192426e-15  -1.9072567069630799e-15  -1.8000443453044770e-15  -1.7278983055437664e-15  -1.5017800862817393e-15  -1.5581673242518606e-15  -1.3439089158506662e-15  -1.3797499509747497e-15  -9.6158637988005150e-16  -8.1837397903421909e-16  0.0000000000000000e+00  -4.2489004709079184e-16  -8.4897346554921821e-16  -1.4406597235811176e-15  -1.0587247524936088e-15  -1.0696703170715764e-15  -1.6288679488885508e-15  -1.6663149920117351e-15  -2.0853190645514268e-15  -2.1105256937635248e-15  -2.0796755800334721e-15  -1.5486167041716812e-15  -1.2577450700629512e-15  -1.6824954706459060e-15  -1.6155728098136105e-15  -1.6993323724619214e-15  -1.4935092150583615e-15  -2.0572448792426862e-15  -1.7094453344482490e-15  -1.7256895518233511e-15  -1.1117087870916389e-15  </DataArray> 
</PointData> 
</Piece>
</UnstructuredGrid>
</VTKFile>