<?xml version="1.0"?>
<VTKFile type="UnstructuredGrid"  version="0.1"  >
<UnstructuredGrid>
<Piece  NumberOfPoints="441" NumberOfCells="800">
<Points>
<DataArray  type="Float64"  NumberOfComponents="3"  format="ascii">0 0 0  0.05 0 0  0.1 0 0  0.15 0 0  0.2 0 0  0.25 0 0  0.3 0 0  0.35 0 0  0.4 0 0  0.45 0 0  0.5 0 0  0.55 0 0  0.6 0 0  0.65 0 0  0.7 0 0  0.75 0 0  0.8 0 0  0.85 0 0  0.9 0 0  0.95 0 0  1 0 0  0 0.05 0  0.05 0.05 0  0.1 0.05 0  0.15 0.05 0  0.2 0.05 0  0.25 0.05 0  0.3 0.05 0  0.35 0.05 0  0.4 0.05 0  0.45 0.05 0  0.5 0.05 0  0.55 0.05 0  0.6 0.05 0  0.65 0.05 0  0.7 0.05 0  0.75 0.05 0  0.8 0.05 0  0.85 0.05 0  0.9 0.05 0  0.95 0.05 0  1 0.05 0  0 0.1 0  0.05 0.1 0  0.1 0.1 0  0.15 0.1 0  0.2 0.1 0  0.25 0.1 0  0.3 0.1 0  0.35 0.1 0  0.4 0.1 0  0.45 0.1 0  0.5 0.1 0  0.55 0.1 0  0.6 0.1 0  0.65 0.1 0  0.7 0.1 0  0.75 0.1 0  0.8 0.1 0  0.85 0.1 0  0.9 0.1 0  0.95 0.1 0  1 0.1 0  0 0.15 0  0.05 0.15 0  0.1 0.15 0  0.15 0.15 0  0.2 0.15 0  0.25 0.15 0  0.3 0.15 0  0.35 0.15 0  0.4 0.15 0  0.45 0.15 0  0.5 0.15 0  0.55 0.15 0  0.6 0.15 0  0.65 0.15 0  0.7 0.15 0  0.75 0.15 0  0.8 0.15 0  0.85 0.15 0  0.9 0.15 0  0.95 0.15 0  1 0.15 0  0 0.2 0  0.05 0.2 0  0.1 0.2 0  0.15 0.2 0  0.2 0.2 0  0.25 0.2 0  0.3 0.2 0  0.35 0.2 0  0.4 0.2 0  0.45 0.2 0  0.5 0.2 0  0.55 0.2 0  0.6 0.2 0  0.65 0.2 0  0.7 0.2 0  0.75 0.2 0  0.8 0.2 0  0.85 0.2 0  0.9 0.2 0  0.95 0.2 0  1 0.2 0  0 0.25 0  0.05 0.25 0  0.1 0.25 0  0.15 0.25 0  0.2 0.25 0  0.25 0.25 0  0.3 0.25 0  0.35 0.25 0  0.4 0.25 0  0.45 0.25 0  0.5 0.25 0  0.55 0.25 0  0.6 0.25 0  0.65 0.25 0  0.7 0.25 0  0.75 0.25 0  0.8 0.25 0  0.85 0.25 0  0.9 0.25 0  0.95 0.25 0  1 0.25 0  0 0.3 0  0.05 0.3 0  0.1 0.3 0  0.15 0.3 0  0.2 0.3 0  0.25 0.3 0  0.3 0.3 0  0.35 0.3 0  0.4 0.3 0  0.45 0.3 0  0.5 0.3 0  0.55 0.3 0  0.6 0.3 0  0.65 0.3 0  0.7 0.3 0  0.75 0.3 0  0.8 0.3 0  0.85 0.3 0  0.9 0.3 0  0.95 0.3 0  1 0.3 0  0 0.35 0  0.05 0.35 0  0.1 0.35 0  0.15 0.35 0  0.2 0.35 0  0.25 0.35 0  0.3 0.35 0  0.35 0.35 0  0.4 0.35 0  0.45 0.35 0  0.5 0.35 0  0.55 0.35 0  0.6 0.35 0  0.65 0.35 0  0.7 0.35 0  0.75 0.35 0  0.8 0.35 0  0.85 0.35 0  0.9 0.35 0  0.95 0.35 0  1 0.35 0  0 0.4 0  0.05 0.4 0  0.1 0.4 0  0.15 0.4 0  0.2 0.4 0  0.25 0.4 0  0.3 0.4 0  0.35 0.4 0  0.4 0.4 0  0.45 0.4 0  0.5 0.4 0  0.55 0.4 0  0.6 0.4 0  0.65 0.4 0  0.7 0.4 0  0.75 0.4 0  0.8 0.4 0  0.85 0.4 0  0.9 0.4 0  0.95 0.4 0  1 0.4 0  0 0.45 0  0.05 0.45 0  0.1 0.45 0  0.15 0.45 0  0.2 0.45 0  0.25 0.45 0  0.3 0.45 0  0.35 0.45 0  0.4 0.45 0  0.45 0.45 0  0.5 0.45 0  0.55 0.45 0  0.6 0.45 0  0.65 0.45 0  0.7 0.45 0  0.75 0.45 0  0.8 0.45 0  0.85 0.45 0  0.9 0.45 0  0.95 0.45 0  1 0.45 0  0 0.5 0  0.05 0.5 0  0.1 0.5 0  0.15 0.5 0  0.2 0.5 0  0.25 0.5 0  0.3 0.5 0  0.35 0.5 0  0.4 0.5 0  0.45 0.5 0  0.5 0.5 0  0.55 0.5 0  0.6 0.5 0  0.65 0.5 0  0.7 0.5 0  0.75 0.5 0  0.8 0.5 0  0.85 0.5 0  0.9 0.5 0  0.95 0.5 0  1 0.5 0  0 0.55 0  0.05 0.55 0  0.1 0.55 0  0.15 0.55 0  0.2 0.55 0  0.25 0.55 0  0.3 0.55 0  0.35 0.55 0  0.4 0.55 0  0.45 0.55 0  0.5 0.55 0  0.55 0.55 0  0.6 0.55 0  0.65 0.55 0  0.7 0.55 0  0.75 0.55 0  0.8 0.55 0  0.85 0.55 0  0.9 0.55 0  0.95 0.55 0  1 0.55 0  0 0.6 0  0.05 0.6 0  0.1 0.6 0  0.15 0.6 0  0.2 0.6 0  0.25 0.6 0  0.3 0.6 0  0.35 0.6 0  0.4 0.6 0  0.45 0.6 0  0.5 0.6 0  0.55 0.6 0  0.6 0.6 0  0.65 0.6 0  0.7 0.6 0  0.75 0.6 0  0.8 0.6 0  0.85 0.6 0  0.9 0.6 0  0.95 0.6 0  1 0.6 0  0 0.65 0  0.05 0.65 0  0.1 0.65 0  0.15 0.65 0  0.2 0.65 0  0.25 0.65 0  0.3 0.65 0  0.35 0.65 0  0.4 0.65 0  0.45 0.65 0  0.5 0.65 0  0.55 0.65 0  0.6 0.65 0  0.65 0.65 0  0.7 0.65 0  0.75 0.65 0  0.8 0.65 0  0.85 0.65 0  0.9 0.65 0  0.95 0.65 0  1 0.65 0  0 0.7 0  0.05 0.7 0  0.1 0.7 0  0.15 0.7 0  0.2 0.7 0  0.25 0.7 0  0.3 0.7 0  0.35 0.7 0  0.4 0.7 0  0.45 0.7 0  0.5 0.7 0  0.55 0.7 0  0.6 0.7 0  0.65 0.7 0  0.7 0.7 0  0.75 0.7 0  0.8 0.7 0  0.85 0.7 0  0.9 0.7 0  0.95 0.7 0  1 0.7 0  0 0.75 0  0.05 0.75 0  0.1 0.75 0  0.15 0.75 0  0.2 0.75 0  0.25 0.75 0  0.3 0.75 0  0.35 0.75 0  0.4 0.75 0  0.45 0.75 0  0.5 0.75 0  0.55 0.75 0  0.6 0.75 0  0.65 0.75 0  0.7 0.75 0  0.75 0.75 0  0.8 0.75 0  0.85 0.75 0  0.9 0.75 0  0.95 0.75 0  1 0.75 0  0 0.8 0  0.05 0.8 0  0.1 0.8 0  0.15 0.8 0  0.2 0.8 0  0.25 0.8 0  0.3 0.8 0  0.35 0.8 0  0.4 0.8 0  0.45 0.8 0  0.5 0.8 0  0.55 0.8 0  0.6 0.8 0  0.65 0.8 0  0.7 0.8 0  0.75 0.8 0  0.8 0.8 0  0.85 0.8 0  0.9 0.8 0  0.95 0.8 0  1 0.8 0  0 0.85 0  0.05 0.85 0  0.1 0.85 0  0.15 0.85 0  0.2 0.85 0  0.25 0.85 0  0.3 0.85 0  0.35 0.85 0  0.4 0.85 0  0.45 0.85 0  0.5 0.85 0  0.55 0.85 0  0.6 0.85 0  0.65 0.85 0  0.7 0.85 0  0.75 0.85 0  0.8 0.85 0  0.85 0.85 0  0.9 0.85 0  0.95 0.85 0  1 0.85 0  0 0.9 0  0.05 0.9 0  0.1 0.9 0  0.15 0.9 0  0.2 0.9 0  0.25 0.9 0  0.3 0.9 0  0.35 0.9 0  0.4 0.9 0  0.45 0.9 0  0.5 0.9 0  0.55 0.9 0  0.6 0.9 0  0.65 0.9 0  0.7 0.9 0  0.75 0.9 0  0.8 0.9 0  0.85 0.9 0  0.9 0.9 0  0.95 0.9 0  1 0.9 0  0 0.95 0  0.05 0.95 0  0.1 0.95 0  0.15 0.95 0  0.2 0.95 0  0.25 0.95 0  0.3 0.95 0  0.35 0.95 0  0.4 0.95 0  0.45 0.95 0  0.5 0.95 0  0.55 0.95 0  0.6 0.95 0  0.65 0.95 0  0.7 0.95 0  0.75 0.95 0  0.8 0.95 0  0.85 0.95 0  0.9 0.95 0  0.95 0.95 0  1 0.95 0  0 1 0  0.05 1 0  0.1 1 0  0.15 1 0  0.2 1 0  0.25 1 0  0.3 1 0  0.35 1 0  0.4 1 0  0.45 1 0  0.5 1 0  0.55 1 0  0.6 1 0  0.65 1 0  0.7 1 0  0.75 1 0  0.8 1 0  0.85 1 0  0.9 1 0  0.95 1 0  1 1 0  </DataArray>
</Points>
<Cells>
[...]
<PointData  Scalars="u"> 
<DataArray  type="Float64"  Name="u"  format="ascii">3.2156279871980469e+00  5.4794672385355465e-02  -1.0073060208186018e+00  -1.4535317945976067e+00  -1.6313647604649621e+00  -1.6866071700164744e+00  -1.6722738942565520e+00  -1.6146982364804416e+00  -1.5282857333920696e+00  -1.4216548858571345e+00  -1.3007384629829077e+00  -1.1697680028074293e+00  -1.0320281685504078e+00  -8.9001966687452094e-01  -7.4602493242326584e-01  -6.0133833524443869e-01  -4.5366154079750959e-01  -3.0610697980642826e-01  -6.4644389746712771e-02  1.2722658665409786e-01  1.8819572932741355e-01  8.1134819457625695e-01  1.8393180069958473e-01  -8.7716065491000805e-01  -1.3170127944809815e+00  -1.5101031555488564e+00  -1.5839308187351184e+00  -1.5835597939217019e+00  -1.5380338237317634e+00  -1.4621026457069788e+00  -1.3649256417718409e+00  -1.2527600395298608e+00  -1.1299973250499988e+00  -9.9993974630394056e-01  -8.6512241227329767e-01  -7.2750469040803634e-01  -5.8816378542692438e-01  -4.4629517258900847e-01  -2.9556582788013830e-01  -1.0826410436153949e-01  5.8983652243017763e-02  1.2577291920862357e-01  1.6597085546530055e-01  -2.0342077277914075e-01  -1.0798929060378832e+00  -1.3171006423308598e+00  -1.4707141006574416e+00  -1.5281158825270489e+00  -1.5241775997655818e+00  -1.4808112064147312e+00  -1.4092614192145532e+00  -1.3176117844948942e+00  -1.2115013311875236e+00  -1.0949873057049893e+00  -9.7116060146875427e-01  -8.4238469019469708e-01  -7.1047231953595036e-01  -5.7665378804959710e-01  -4.4012188535076430e-01  -2.9989373612362236e-01  -1.3146357018485527e-01  2.8783573696171145e-02  1.3677290379775400e-01  -2.4339011365295071e-01  -6.0460863344981097e-01  -1.2250299514235783e+00  -1.3675116341461866e+00  -1.4782830509705331e+00  -1.5041210792376154e+00  -1.4882202087663119e+00  -1.4402799450541819e+00  -1.3685395459610712e+00  -1.2792092719819776e+00  -1.1768169083573921e+00  -1.0648108068212419e+00  -9.4589103355713289e-01  -8.2217027653500896e-01  -6.9533835838832148e-01  -5.6661848308707730e-01  -4.3587499645314132e-01  -3.0248855399052460e-01  -1.4319020705236996e-01  1.3731689361728540e-02  1.2661942362197331e-01  -5.5089808210874780e-01  -8.5852000509168258e-01  -1.3564833376361081e+00  -1.4463703791441802e+00  -1.5030067224298813e+00  -1.4997472098663640e+00  -1.4690404501750105e+00  -1.4129330052310629e+00  -1.3381896671936151e+00  -1.2488469374065427e+00  -1.1483251976718032e+00  -1.0393579970109028e+00  -9.2417210552174645e-01  -8.0457796030960849e-01  -6.8207948589456047e-01  -5.5784512002918052e-01  -4.3184065136584820e-01  -3.0335757989296297e-01  -1.5120221114670440e-01  2.3760293589229002e-04  1.1402732648572286e-01  -7.8660357770556455e-01  -1.0538811229803609e+00  -1.4669344346411977e+00  -1.5108338662068137e+00  -1.5303226730047126e+00  -1.5055762470486687e+00  -1.4596998967272270e+00  -1.3948193821266783e+00  -1.3158253451667059e+00  -1.2251016620001987e+00  -1.1252019107785434e+00  -1.0181670929229949e+00  -9.0575969845468163e-01  -7.8946916100160802e-01  -6.7057835277784184e-01  -5.5010317141674248e-01  -4.2799051852396819e-01  -3.0347081762810285e-01  -1.5774519777379209e-01  -1.2067568665186643e-02  1.0075691677053548e-01  -9.8429610715678284e-01  -1.2091237205315357e+00  -1.5494255950847049e+00  -1.5632773510662759e+00  -1.5574257245346053e+00  -1.5144162053834362e+00  -1.4555663816393565e+00  -1.3828027329512242e+00  -1.2992610376396365e+00  -1.2065579285161343e+00  -1.1065362971548098e+00  -1.0006640279379662e+00  -8.9029876069154734e-01  -7.7662359780390600e-01  -6.6069123136127283e-01  -5.4334186090863268e-01  -4.2448842864045572e-01  -3.0336901238901887e-01  -1.6358959930985914e-01  -2.3679435216677900e-02  8.7550536658709530e-02  -1.1538841173176491e+00  -1.3365187663072737e+00  -1.6135555311182397e+00  -1.6053465131173832e+00  -1.5797648976232013e+00  -1.5228645311756992e+00  -1.4540011170914151e+00  -1.3744540981835012e+00  -1.2867090507479941e+00  -1.1919416203351121e+00  -1.0914314160402847e+00  -9.8623668949986198e-01  -8.7738017376611788e-01  -7.6577704724013207e-01  -6.5226788374621936e-01  -5.3752713459047019e-01  -4.2144640177518827e-01  -3.0331304897044831e-01  -1.6902424925678219e-01  -3.4596679188412652e-02  7.4998956304395376e-02  -1.3021139223054583e+00  -1.4440345837489230e+00  -1.6639114495265270e+00  -1.6381051846366235e+00  -1.5973392420742294e+00  -1.5300434269979180e+00  -1.4532691308471362e+00  -1.3681705019240800e+00  -1.2768819390571478e+00  -1.1802200215771446e+00  -1.0791091068327427e+00  -9.7431781360581304e-01  -8.6660252783062530e-01  -7.5665998925042910e-01  -6.4514852251521360e-01  -5.3259935166595429e-01  -4.1889747739305083e-01  -3.0339725932374373e-01  -1.7412521968020950e-01  -4.4764068184370565e-02  6.3313288078388111e-02  -1.4329054654216744e+00  -1.5361545000624259e+00  -1.7040151780964827e+00  -1.6636877551830289e+00  -1.6107672221183909e+00  -1.5354135287052608e+00  -1.4524870092922191e+00  -1.3630394021518399e+00  -1.2688774697418355e+00  -1.1706114186974907e+00  -1.0689404203176307e+00  -9.6441815964403144e-01  -8.5760148288311600e-01  -7.4901530320925802e-01  -6.3916794883864358e-01  -5.2847234087653183e-01  -4.1681812334911073e-01  -3.0363234431500669e-01  -1.7889730575451648e-01  -5.4138650543573363e-02  5.2611083104817491e-02  -1.5486584433317903e+00  -1.6158085714777966e+00  -1.7363770195185526e+00  -1.6836757112521272e+00  -1.6207232237302436e+00  -1.5390573665556115e+00  -1.4513620327724239e+00  -1.3585305177414500e+00  -1.2621051533927972e+00  -1.1625655388548006e+00  -1.0604436957873682e+00  -9.5614037196750734e-01  -8.5006586930271733e-01  -7.4261152337292691e-01  -6.3416583102269952e-01  -5.2504629185775031e-01  -4.1515493914381757e-01  -3.0399233858145447e-01  -1.8332202326565453e-01  -6.2691363660434887e-02  4.2934923462278285e-02  -1.6509467378353049e+00  -1.6849126449923582e+00  -1.7627210286096964e+00  -1.6993262357960057e+00  -1.6279458201732913e+00  -1.5412489230884998e+00  -1.4498208899745777e+00  -1.3543771426221820e+00  -1.2562155626527880e+00  -1.1557093522948718e+00  -1.0532657148376252e+00  -9.4917633021768044e-01  -8.4374137154037065e-01  -7.3724969760768633e-01  -6.2999553397493535e-01  -5.2222040380732149e-01  -4.1384372317958895e-01  -3.0443848476091445e-01  -1.8737629343003598e-01  -7.0408689211476611e-02  3.4287329041665565e-02  -1.7408190941228661e+00  -1.7447570833892063e+00  -1.7842696490892775e+00  -1.7116021679240976e+00  -1.6330645436511855e+00  -1.5423034440838181e+00  -1.4479361435276246e+00  -1.3504856187465717e+00  -1.2510131170407397e+00  -1.1498013446010340e+00  -1.0471592351266008e+00  -9.4329587268329385e-01  -8.3842783582334657e-01  -7.3276573751600327e-01  -6.2652982760852349e-01  -5.1990174287217816e-01  -4.1282101819392625e-01  -3.0493105570268009e-01  -1.9103966738169789e-01  -7.7288093767363356e-02  2.6649649445311868e-02  -1.8189942055658186e+00  -1.7962319935363329e+00  -1.8018928331937849e+00  -1.7212269132513502e+00  -1.6365995323514837e+00  -1.5425334586543789e+00  -1.4458400914733247e+00  -1.3468508298829944e+00  -1.2464022170347899e+00  -1.1446956776672850e+00  -1.0419576216109543e+00  -9.3833260955801645e-01  -8.3397298433350109e-01  -7.2902907788923077e-01  -6.2366312390864143e-01  -5.1800999826083638e-01  -4.1203015470316107e-01  -3.0543470743816137e-01  -1.9429629360193040e-01  -8.3333833581243161e-02  1.9993833956786451e-02  -1.8859736922418067e+00  -1.8399609937500270e+00  -1.8162156147336008e+00  -1.7287435042339514e+00  -1.6389671330593805e+00  -1.5422154673135691e+00  -1.4436802750291606e+00  -1.3435159219040593e+00  -1.2423501800920140e+00  -1.1403106383148007e+00  -1.0375530393128571e+00  -9.3417031393194860e-01  -8.3026448082968407e-01  -7.2593914650450819e-01  -6.2131112493292495e-01  -5.1647913589777739e-01  -4.1142372884713047e-01  -3.0592036556060148e-01  -1.9713485205146580e-01  -8.8553609939885369e-02  1.4289746725048688e-02  -1.9421131068630024e+00  -1.8763857331880041e+00  -1.8276898041735985e+00  -1.7345575157316160e+00  -1.6404934139390508e+00  -1.5415823981321755e+00  -1.4415987673850903e+00  -1.3405445008143761e+00  -1.2388594975345080e+00  -1.1366060237469280e+00  -1.0338793217652125e+00  -9.3073048521261192e-01  -8.2722184396853005e-01  -7.2342082332777968e-01  -6.1940882947150255e-01  -5.1525705602942828e-01  -4.1096401415393990e-01  -3.0636541939369605e-01  -1.9954776871685681e-01  -9.2956208098106799e-02  9.5093172816003661e-03  -1.9876594018544052e+00  -1.9058209958442864e+00  -1.8366422648636531e+00  -1.7389696304085540e+00  -1.6414293568955467e+00  -1.5408231017878093e+00  -1.4397207617954006e+00  -1.3380041240484810e+00  -1.2359505545897116e+00  -1.1335671167426289e+00  -1.0308983800213207e+00  -9.2796194582105418e-01  -8.2478913131736387e-01  -7.2141967451595201e-01  -6.1790772013453665e-01  -5.1430412457061148e-01  -4.1062214627043464e-01  -3.0675285441616890e-01  -2.0153011266260273e-01  -9.6550011274183473e-02  5.6286015337154308e-03  -2.0228017856933627e+00  -1.9284924062694704e+00  -1.8433043925885719e+00  -1.7422003265910704e+00  -1.6419637920586654e+00  -1.5400852335193358e+00  -1.4381499194787146e+00  -1.3359570934661975e+00  -1.2336503200643263e+00  -1.1311933476905356e+00  -1.0285901957359409e+00  -9.2583271313574400e-01  -8.2292875170541246e-01  -7.1989753370808063e-01  -6.1677282633206820e-01  -5.1359141311372691e-01  -4.1037700495514312e-01  -3.0707074417592234e-01  -2.0307954778321474e-01  -9.9342462647707297e-02  2.6285995619871653e-03  -2.0476954715770543e+00  -1.9445200585938851e+00  -1.8478470388055499e+00  -1.7444064560699315e+00  -1.6422341441036514e+00  -1.5394786316421341e+00  -1.4369666454670540e+00  -1.3344547322766676e+00  -1.2319848825656978e+00  -1.1294903171361803e+00  -1.0269453545616805e+00  -9.2432354847240650e-01  -8.2161627896546041e-01  -7.1882854555023223e-01  -6.1597997235299407e-01  -5.1309856945517174e-01  -4.1021329925527011e-01  -3.0731057555504038e-01  -2.0419317381911387e-01  -1.0133738767369010e-01  4.9535369710483590e-04  -2.0618786771661592e+00  -1.9541113375472046e+00  -1.8503652239096267e+00  -1.7456966006699755e+00  -1.6423289321075678e+00  -1.5390816300839625e+00  -1.4362269486275692e+00  -1.3335362068647123e+00  -1.2309758415388818e+00  -1.1284658746105709e+00  -1.0259609445846676e+00  -9.2342428944317467e-01  -8.2083736117618111e-01  -7.1819680847120337e-01  -6.1551405769387757e-01  -5.1281228551446345e-01  -4.1012218925774707e-01  -3.0746871847488738e-01  -2.0487208177908078e-01  -1.0254664131708918e-01  -7.8288669137043508e-04  -2.0680353996918845e+00  -1.9571478107242661e+00  -1.8510024122963553e+00  -1.7460962777990801e+00  -1.6423375310291193e+00  -1.5389238656751718e+00  -1.4359706047896330e+00  -1.3332201962120258e+00  -1.2306351095972905e+00  -1.1281224516311215e+00  -1.0256336739586744e+00  -9.2312742156820882e-01  -8.2058225581526800e-01  -7.1799187858282987e-01  -6.1536515390369362e-01  -5.1272356294125820e-01  -4.1009876017231134e-01  -3.0753493074719251e-01  -2.0511208838756695e-01  -1.0295978465634371e-01  -1.1875391637490703e-03  </DataArray> 
</PointData> 
</Piece>
</UnstructuredGrid>
</VTKFile>