<?xml version="1.0"?>
<VTKFile type="UnstructuredGrid"  version="0.1"  >
<UnstructuredGrid>
<Piece  NumberOfPoints="441" NumberOfCells="800">
<Points>
<DataArray  type="Float64"  NumberOfComponents="3"  format="ascii">0 0 0  0.05 0 0  0.1 0 0  0.15 0 0  0.2 0 0  0.25 0 0  0.3 0 0  0.35 0 0  0.4 0 0  0.45 0 0  0.5 0 0  0.55 0 0  0.6 0 0  0.65 0 0  0.7 0 0  0.75 0 0  0.8 0 0  0.85 0 0  0.9 0 0  0.95 0 0  1 0 0  0 0.05 0  0.05 0.05 0  0.1 0.05 0  0.15 0.05 0  0.2 0.05 0  0.25 0.05 0  0.3 0.05 0  0.35 0.05 0  0.4 0.05 0  0.45 0.05 0  0.5 0.05 0  0.55 0.05 0  0.6 0.05 0  0.65 0.05 0  0.7 0.05 0  0.75 0.05 0  0.8 0.05 0  0.85 0.05 0  0.9 0.05 0  0.95 0.05 0  1 0.05 0  0 0.1 0  0.05 0.1 0  0.1 0.1 0  0.15 0.1 0  0.2 0.1 0  0.25 0.1 0  0.3 0.1 0  0.35 0.1 0  0.4 0.1 0  0.45 0.1 0  0.5 0.1 0  0.55 0.1 0  0.6 0.1 0  0.65 0.1 0  0.7 0.1 0  0.75 0.1 0  0.8 0.1 0  0.85 0.1 0  0.9 0.1 0  0.95 0.1 0  1 0.1 0  0 0.15 0  0.05 0.15 0  0.1 0.15 0  0.15 0.15 0  0.2 0.15 0  0.25 0.15 0  0.3 0.15 0  0.35 0.15 0  0.4 0.15 0  0.45 0.15 0  0.5 0.15 0  0.55 0.15 0  0.6 0.15 0  0.65 0.15 0  0.7 0.15 0  0.75 0.15 0  0.8 0.15 0  0.85 0.15 0  0.9 0.15 0  0.95 0.15 0  1 0.15 0  0 0.2 0  0.05 0.2 0  0.1 0.2 0  0.15 0.2 0  0.2 0.2 0  0.25 0.2 0  0.3 0.2 0  0.35 0.2 0  0.4 0.2 0  0.45 0.2 0  0.5 0.2 0  0.55 0.2 0  0.6 0.2 0  0.65 0.2 0  0.7 0.2 0  0.75 0.2 0  0.8 0.2 0  0.85 0.2 0  0.9 0.2 0  0.95 0.2 0  1 0.2 0  0 0.25 0  0.05 0.25 0  0.1 0.25 0  0.15 0.25 0  0.2 0.25 0  0.25 0.25 0  0.3 0.25 0  0.35 0.25 0  0.4 0.25 0  0.45 0.25 0  0.5 0.25 0  0.55 0.25 0  0.6 0.25 0  0.65 0.25 0  0.7 0.25 0  0.75 0.25 0  0.8 0.25 0  0.85 0.25 0  0.9 0.25 0  0.95 0.25 0  1 0.25 0  0 0.3 0  0.05 0.3 0  0.1 0.3 0  0.15 0.3 0  0.2 0.3 0  0.25 0.3 0  0.3 0.3 0  0.35 0.3 0  0.4 0.3 0  0.45 0.3 0  0.5 0.3 0  0.55 0.3 0  0.6 0.3 0  0.65 0.3 0  0.7 0.3 0  0.75 0.3 0  0.8 0.3 0  0.85 0.3 0  0.9 0.3 0  0.95 0.3 0  1 0.3 0  0 0.35 0  0.05 0.35 0  0.1 0.35 0  0.15 0.35 0  0.2 0.35 0  0.25 0.35 0  0.3 0.35 0  0.35 0.35 0  0.4 0.35 0  0.45 0.35 0  0.5 0.35 0  0.55 0.35 0  0.6 0.35 0  0.65 0.35 0  0.7 0.35 0  0.75 0.35 0  0.8 0.35 0  0.85 0.35 0  0.9 0.35 0  0.95 0.35 0  1 0.35 0  0 0.4 0  0.05 0.4 0  0.1 0.4 0  0.15 0.4 0  0.2 0.4 0  0.25 0.4 0  0.3 0.4 0  0.35 0.4 0  0.4 0.4 0  0.45 0.4 0  0.5 0.4 0  0.55 0.4 0  0.6 0.4 0  0.65 0.4 0  0.7 0.4 0  0.75 0.4 0  0.8 0.4 0  0.85 0.4 0  0.9 0.4 0  0.95 0.4 0  1 0.4 0  0 0.45 0  0.05 0.45 0  0.1 0.45 0  0.15 0.45 0  0.2 0.45 0  0.25 0.45 0  0.3 0.45 0  0.35 0.45 0  0.4 0.45 0  0.45 0.45 0  0.5 0.45 0  0.55 0.45 0  0.6 0.45 0  0.65 0.45 0  0.7 0.45 0  0.75 0.45 0  0.8 0.45 0  0.85 0.45 0  0.9 0.45 0  0.95 0.45 0  1 0.45 0  0 0.5 0  0.05 0.5 0  0.1 0.5 0  0.15 0.5 0  0.2 0.5 0  0.25 0.5 0  0.3 0.5 0  0.35 0.5 0  0.4 0.5 0  0.45 0.5 0  0.5 0.5 0  0.55 0.5 0  0.6 0.5 0  0.65 0.5 0  0.7 0.5 0  0.75 0.5 0  0.8 0.5 0  0.85 0.5 0  0.9 0.5 0  0.95 0.5 0  1 0.5 0  0 0.55 0  0.05 0.55 0  0.1 0.55 0  0.15 0.55 0  0.2 0.55 0  0.25 0.55 0  0.3 0.55 0  0.35 0.55 0  0.4 0.55 0  0.45 0.55 0  0.5 0.55 0  0.55 0.55 0  0.6 0.55 0  0.65 0.55 0  0.7 0.55 0  0.75 0.55 0  0.8 0.55 0  0.85 0.55 0  0.9 0.55 0  0.95 0.55 0  1 0.55 0  0 0.6 0  0.05 0.6 0  0.1 0.6 0  0.15 0.6 0  0.2 0.6 0  0.25 0.6 0  0.3 0.6 0  0.35 0.6 0  0.4 0.6 0  0.45 0.6 0  0.5 0.6 0  0.55 0.6 0  0.6 0.6 0  0.65 0.6 0  0.7 0.6 0  0.75 0.6 0  0.8 0.6 0  0.85 0.6 0  0.9 0.6 0  0.95 0.6 0  1 0.6 0  0 0.65 0  0.05 0.65 0  0.1 0.65 0  0.15 0.65 0  0.2 0.65 0  0.25 0.65 0  0.3 0.65 0  0.35 0.65 0  0.4 0.65 0  0.45 0.65 0  0.5 0.65 0  0.55 0.65 0  0.6 0.65 0  0.65 0.65 0  0.7 0.65 0  0.75 0.65 0  0.8 0.65 0  0.85 0.65 0  0.9 0.65 0  0.95 0.65 0  1 0.65 0  0 0.7 0  0.05 0.7 0  0.1 0.7 0  0.15 0.7 0  0.2 0.7 0  0.25 0.7 0  0.3 0.7 0  0.35 0.7 0  0.4 0.7 0  0.45 0.7 0  0.5 0.7 0  0.55 0.7 0  0.6 0.7 0  0.65 0.7 0  0.7 0.7 0  0.75 0.7 0  0.8 0.7 0  0.85 0.7 0  0.9 0.7 0  0.95 0.7 0  1 0.7 0  0 0.75 0  0.05 0.75 0  0.1 0.75 0  0.15 0.75 0  0.2 0.75 0  0.25 0.75 0  0.3 0.75 0  0.35 0.75 0  0.4 0.75 0  0.45 0.75 0  0.5 0.75 0  0.55 0.75 0  0.6 0.75 0  0.65 0.75 0  0.7 0.75 0  0.75 0.75 0  0.8 0.75 0  0.85 0.75 0  0.9 0.75 0  0.95 0.75 0  1 0.75 0  0 0.8 0  0.05 0.8 0  0.1 0.8 0  0.15 0.8 0  0.2 0.8 0  0.25 0.8 0  0.3 0.8 0  0.35 0.8 0  0.4 0.8 0  0.45 0.8 0  0.5 0.8 0  0.55 0.8 0  0.6 0.8 0  0.65 0.8 0  0.7 0.8 0  0.75 0.8 0  0.8 0.8 0  0.85 0.8 0  0.9 0.8 0  0.95 0.8 0  1 0.8 0  0 0.85 0  0.05 0.85 0  0.1 0.85 0  0.15 0.85 0  0.2 0.85 0  0.25 0.85 0  0.3 0.85 0  0.35 0.85 0  0.4 0.85 0  0.45 0.85 0  0.5 0.85 0  0.55 0.85 0  0.6 0.85 0  0.65 0.85 0  0.7 0.85 0  0.75 0.85 0  0.8 0.85 0  0.85 0.85 0  0.9 0.85 0  0.95 0.85 0  1 0.85 0  0 0.9 0  0.05 0.9 0  0.1 0.9 0  0.15 0.9 0  0.2 0.9 0  0.25 0.9 0  0.3 0.9 0  0.35 0.9 0  0.4 0.9 0  0.45 0.9 0  0.5 0.9 0  0.55 0.9 0  0.6 0.9 0  0.65 0.9 0  0.7 0.9 0  0.75 0.9 0  0.8 0.9 0  0.85 0.9 0  0.9 0.9 0  0.95 0.9 0  1 0.9 0  0 0.95 0  0.05 0.95 0  0.1 0.95 0  0.15 0.95 0  0.2 0.95 0  0.25 0.95 0  0.3 0.95 0  0.35 0.95 0  0.4 0.95 0  0.45 0.95 0  0.5 0.95 0  0.55 0.95 0  0.6 0.95 0  0.65 0.95 0  0.7 0.95 0  0.75 0.95 0  0.8 0.95 0  0.85 0.95 0  0.9 0.95 0  0.95 0.95 0  1 0.95 0  0 1 0  0.05 1 0  0.1 1 0  0.15 1 0  0.2 1 0  0.25 1 0  0.3 1 0  0.35 1 0  0.4 1 0  0.45 1 0  0.5 1 0  0.55 1 0  0.6 1 0  0.65 1 0  0.7 1 0  0.75 1 0  0.8 1 0  0.85 1 0  0.9 1 0  0.95 1 0  1 1 0  </DataArray>
</Points>
<Cells>
[...]
<PointData  Vectors="u"> 
<DataArray  type="Float64"  Name="u"  NumberOfComponents="3" format="ascii">0.0000000000000000e+00 0.0000000000000000e+00 0.0000000000000000e+00  0.0000000000000000e+00 0.0000000000000000e+00 0.0000000000000000e+00  0.0000000000000000e+00 0.0000000000000000e+00 0.0000000000000000e+00  0.0000000000000000e+00 0.0000000000000000e+00 0.0000000000000000e+00  0.0000000000000000e+00 0.0000000000000000e+00 0.0000000000000000e+00  0.0000000000000000e+00 0.0000000000000000e+00 0.0000000000000000e+00  0.0000000000000000e+00 0.0000000000000000e+00 0.0000000000000000e+00  0.0000000000000000e+00 0.0000000000000000e+00 0.0000000000000000e+00  0.0000000000000000e+00 0.0000000000000000e+00 0.0000000000000000e+00  0.0000000000000000e+00 0.0000000000000000e+00 0.0000000000000000e+00  0.0000000000000000e+00 0.0000000000000000e+00 0.0000000000000000e+00  0.0000000000000000e+00 0.0000000000000000e+00 0.0000000000000000e+00  0.0000000000000000e+00 0.0000000000000000e+00 0.0000000000000000e+00  0.0000000000000000e+00 0.0000000000000000e+00 0.0000000000000000e+00  0.0000000000000000e+00 0.0000000000000000e+00 0.0000000000000000e+00  0.0000000000000000e+00 0.0000000000000000e+00 0.0000000000000000e+00  0.0000000000000000e+00 0.0000000000000000e+00 0.0000000000000000e+00  0.0000000000000000e+00 0.0000000000000000e+00 0.0000000000000000e+00  0.0000000000000000e+00 0.0000000000000000e+00 0.0000000000000000e+00  0.0000000000000000e+00 0.0000000000000000e+00 0.0000000000000000e+00  0.0000000000000000e+00 0.0000000000000000e+00 0.0000000000000000e+00  0.0000000000000000e+00 0.0000000000000000e+00 0.0000000000000000e+00  0.0000000000000000e+00 0.0000000000000000e+00 0.0000000000000000e+00  0.0000000000000000e+00 0.0000000000000000e+00 0.0000000000000000e+00  0.0000000000000000e+00 0.0000000000000000e+00 0.0000000000000000e+00  0.0000000000000000e+00 0.0000000000000000e+00 0.0000000000000000e+00  0.0000000000000000e+00 0.0000000000000000e+00 0.0000000000000000e+00  0.0000000000000000e+00 0.0000000000000000e+00 0.0000000000000000e+00  0.0000000000000000e+00 0.0000000000000000e+00 0.0000000000000000e+00  0.0000000000000000e+00 0.0000000000000000e+00 0.0000000000000000e+00  0.0000000000000000e+00 0.0000000000000000e+00 0.0000000000000000e+00  3.5547007221148839e-16 0.0000000000000000e+00 0.0000000000000000e+00  3.8365076339095922e-16 0.0000000000000000e+00 0.0000000000000000e+00  4.6665200571925806e-16 0.0000000000000000e+00 0.0000000000000000e+00  5.2580138873400686e-16 0.0000000000000000e+00 0.0000000000000000e+00  6.3269131557418236e-16 0.0000000000000000e+00 0.0000000000000000e+00  6.6086338643925743e-16 0.0000000000000000e+00 0.0000000000000000e+00  7.4688328316860677e-16 0.0000000000000000e+00 0.0000000000000000e+00  6.7506214410659725e-16 0.0000000000000000e+00 0.0000000000000000e+00  5.9671980330959010e-16 0.0000000000000000e+00 0.0000000000000000e+00  4.9555797638823908e-16 0.0000000000000000e+00 0.0000000000000000e+00  3.8890959351840125e-16 0.0000000000000000e+00 0.0000000000000000e+00  0.0000000000000000e+00 0.0000000000000000e+00 0.0000000000000000e+00  0.0000000000000000e+00 0.0000000000000000e+00 0.0000000000000000e+00  0.0000000000000000e+00 0.0000000000000000e+00 0.0000000000000000e+00  0.0000000000000000e+00 0.0000000000000000e+00 0.0000000000000000e+00  0.0000000000000000e+00 0.0000000000000000e+00 0.0000000000000000e+00  0.0000000000000000e+00 0.0000000000000000e+00 0.0000000000000000e+00  0.0000000000000000e+00 0.0000000000000000e+00 0.0000000000000000e+00  3.3391242534840796e-16 0.0000000000000000e+00 0.0000000000000000e+00  3.5413188436262302e-16 0.0000000000000000e+00 0.0000000000000000e+00  5.3409339811265733e-16 0.0000000000000000e+00 0.0000000000000000e+00  6.0343677804871191e-16 0.0000000000000000e+00 0.0000000000000000e+00  7.3526485556818668e-16 0.0000000000000000e+00 0.0000000000000000e+00  9.6848789437668123e-16 0.0000000000000000e+00 0.0000000000000000e+00  1.0460641184709493e-15 0.0000000000000000e+00 0.0000000000000000e+00  1.1655740069654286e-15 0.0000000000000000e+00 0.0000000000000000e+00  1.2218490353567948e-15 0.0000000000000000e+00 0.0000000000000000e+00  1.1874372143085557e-15 0.0000000000000000e+00 0.0000000000000000e+00  1.1721944544135525e-15 0.0000000000000000e+00 0.0000000000000000e+00  1.0742029946820502e-15 0.0000000000000000e+00 0.0000000000000000e+00  8.8436944410820094e-16 0.0000000000000000e+00 0.0000000000000000e+00  6.8031542802913280e-16 0.0000000000000000e+00 0.0000000000000000e+00  0.0000000000000000e+00 0.0000000000000000e+00 0.0000000000000000e+00  0.0000000000000000e+00 0.0000000000000000e+00 0.0000000000000000e+00  0.0000000000000000e+00 0.0000000000000000e+00 0.0000000000000000e+00  0.0000000000000000e+00 0.0000000000000000e+00 0.0000000000000000e+00  0.0000000000000000e+00 0.0000000000000000e+00 0.0000000000000000e+00  0.0000000000000000e+00 0.0000000000000000e+00 0.0000000000000000e+00  0.0000000000000000e+00 0.0000000000000000e+00 0.0000000000000000e+00  4.5858643225487949e-16 0.0000000000000000e+00 0.0000000000000000e+00  6.7166224571489035e-16 0.0000000000000000e+00 0.0000000000000000e+00  7.7329444501980325e-16 0.0000000000000000e+00 0.0000000000000000e+00  1.1203785209374521e-15 0.0000000000000000e+00 0.0000000000000000e+00  1.2767390654874266e-15 0.0000000000000000e+00 0.0000000000000000e+00  1.4687419664843527e-15 0.0000000000000000e+00 0.0000000000000000e+00  1.5029579678279546e-15 0.0000000000000000e+00 0.0000000000000000e+00  1.5311772072204242e-15 0.0000000000000000e+00 0.0000000000000000e+00  1.6186359609167378e-15 0.0000000000000000e+00 0.0000000000000000e+00  1.4789145758925286e-15 0.0000000000000000e+00 0.0000000000000000e+00  1.4409153176628333e-15 0.0000000000000000e+00 0.0000000000000000e+00  1.2911799960434362e-15 3.0769236961672837e-16 0.0000000000000000e+00  1.1626115616190704e-15 3.3012297580701041e-16 0.0000000000000000e+00  9.7678358051434719e-16 3.5827770207841483e-16 0.0000000000000000e+00  0.0000000000000000e+00 0.0000000000000000e+00 0.0000000000000000e+00  0.0000000000000000e+00 0.0000000000000000e+00 0.0000000000000000e+00  0.0000000000000000e+00 0.0000000000000000e+00 0.0000000000000000e+00  0.0000000000000000e+00 0.0000000000000000e+00 0.0000000000000000e+00  0.0000000000000000e+00 0.0000000000000000e+00 0.0000000000000000e+00  0.0000000000000000e+00 -3.1048178827846977e-16 0.0000000000000000e+00  3.9330883289305161e-16 -3.9713644675403447e-16 0.0000000000000000e+00  6.0060606659714103e-16 -4.5845241092029445e-16 0.0000000000000000e+00  7.9611993292047126e-16 -4.9064733679096391e-16 0.0000000000000000e+00  1.0620374927368118e-15 -5.1122329973011703e-16 0.0000000000000000e+00  1.4362940667703673e-15 -4.9821325922542080e-16 0.0000000000000000e+00  1.4605518417826500e-15 -4.1394536290904543e-16 0.0000000000000000e+00  1.7841607109119663e-15 0.0000000000000000e+00 0.0000000000000000e+00  1.8450620394135041e-15 0.0000000000000000e+00 0.0000000000000000e+00  1.8263686586654840e-15 0.0000000000000000e+00 0.0000000000000000e+00  1.7661090785178443e-15 0.0000000000000000e+00 0.0000000000000000e+00  1.5738392809500456e-15 0.0000000000000000e+00 0.0000000000000000e+00  1.4132153025764086e-15 3.4807694512285472e-16 0.0000000000000000e+00  1.2787897221739374e-15 4.6636137164534760e-16 0.0000000000000000e+00  1.1171514737607979e-15 5.4843990297924198e-16 0.0000000000000000e+00  8.6978871470378679e-16 5.1772534038361200e-16 0.0000000000000000e+00  0.0000000000000000e+00 0.0000000000000000e+00 0.0000000000000000e+00  0.0000000000000000e+00 0.0000000000000000e+00 0.0000000000000000e+00  0.0000000000000000e+00 0.0000000000000000e+00 0.0000000000000000e+00  0.0000000000000000e+00 0.0000000000000000e+00 0.0000000000000000e+00  0.0000000000000000e+00 0.0000000000000000e+00 0.0000000000000000e+00  3.0357101713538216e-16 -4.2449318678659491e-16 0.0000000000000000e+00  4.3408919508871807e-16 -6.0599945712545553e-16 0.0000000000000000e+00  8.0053637899937949e-16 -6.5931761752534282e-16 0.0000000000000000e+00  7.5732685960658836e-16 -7.3032703375249085e-16 0.0000000000000000e+00  1.0895457591477515e-15 -7.9742591224770007e-16 0.0000000000000000e+00  1.3201500575849601e-15 -7.2832855613398746e-16 0.0000000000000000e+00  1.5898721773852228e-15 -5.9991699132369464e-16 0.0000000000000000e+00  1.4886154369833684e-15 -4.6019057280276569e-16 0.0000000000000000e+00  1.8848657236536292e-15 0.0000000000000000e+00 0.0000000000000000e+00  1.7541232341644969e-15 0.0000000000000000e+00 0.0000000000000000e+00  1.5633392452366687e-15 0.0000000000000000e+00 0.0000000000000000e+00  1.2167185131895720e-15 3.1409874085855977e-16 0.0000000000000000e+00  1.2736221228326015e-15 4.6245751599526161e-16 0.0000000000000000e+00  1.2444769923405077e-15 5.5272307223721000e-16 0.0000000000000000e+00  1.1344016142456468e-15 6.4562285638400045e-16 0.0000000000000000e+00  1.1578752232929086e-15 6.3059756458786255e-16 0.0000000000000000e+00  0.0000000000000000e+00 0.0000000000000000e+00 0.0000000000000000e+00  0.0000000000000000e+00 0.0000000000000000e+00 0.0000000000000000e+00  0.0000000000000000e+00 0.0000000000000000e+00 0.0000000000000000e+00  0.0000000000000000e+00 0.0000000000000000e+00 0.0000000000000000e+00  0.0000000000000000e+00 0.0000000000000000e+00 0.0000000000000000e+00  5.6649511717085580e-16 -4.9310978315643264e-16 0.0000000000000000e+00  7.7918359735839899e-16 -7.3652893582533444e-16 0.0000000000000000e+00  5.9291493215447133e-16 -8.8065584094536732e-16 0.0000000000000000e+00  9.7570011267644968e-16 -9.7212222054603936e-16 0.0000000000000000e+00  1.2286952011564801e-15 -9.7139252918486227e-16 0.0000000000000000e+00  1.1351655098916903e-15 -9.1814601707306716e-16 0.0000000000000000e+00  1.4670779530653795e-15 -8.0196045851748890e-16 0.0000000000000000e+00  1.5881151671794680e-15 -5.8176932345647926e-16 0.0000000000000000e+00  1.6498787631182878e-15 0.0000000000000000e+00 0.0000000000000000e+00  1.4598544434397460e-15 0.0000000000000000e+00 0.0000000000000000e+00  1.3281785467023014e-15 4.9622878805270198e-16 0.0000000000000000e+00  1.1880812178494821e-15 5.1207477144663313e-16 0.0000000000000000e+00  8.6707202179657977e-16 4.8218666645393204e-16 0.0000000000000000e+00  1.0152249617965613e-15 5.5700070097954855e-16 0.0000000000000000e+00  9.2906271820507072e-16 7.2111675461508850e-16 0.0000000000000000e+00  7.7421490690043309e-16 8.2360035894870661e-16 0.0000000000000000e+00  0.0000000000000000e+00 0.0000000000000000e+00 0.0000000000000000e+00  0.0000000000000000e+00 0.0000000000000000e+00 0.0000000000000000e+00  0.0000000000000000e+00 0.0000000000000000e+00 0.0000000000000000e+00  3.1372322366369217e-16 -4.1106291764825811e-16 0.0000000000000000e+00  0.0000000000000000e+00 -4.8917184380779026e-16 0.0000000000000000e+00  9.3234829548554859e-16 -7.0487181988990965e-16 0.0000000000000000e+00  7.4703393102423049e-16 -8.7379703338943718e-16 0.0000000000000000e+00  1.3529904321425415e-15 -1.0129475801617832e-15 0.0000000000000000e+00  1.4379794141065303e-15 -1.0981978968075420e-15 0.0000000000000000e+00  1.3495062794091599e-15 -1.1102741966601901e-15 0.0000000000000000e+00  1.3764727605784109e-15 -1.0252355023381300e-15 0.0000000000000000e+00  1.3876694569311875e-15 -8.6871690535396712e-16 0.0000000000000000e+00  1.3802840317216825e-15 -5.3680203546954144e-16 0.0000000000000000e+00  1.2444026036154375e-15 0.0000000000000000e+00 0.0000000000000000e+00  8.8511460163226322e-16 0.0000000000000000e+00 0.0000000000000000e+00  9.0242046816611562e-16 6.1818334774739379e-16 0.0000000000000000e+00  7.2791141033170021e-16 7.0542329952796963e-16 0.0000000000000000e+00  8.3395188075751801e-16 6.7381768086655542e-16 0.0000000000000000e+00  3.2407684072364830e-16 7.7216398034571147e-16 0.0000000000000000e+00  0.0000000000000000e+00 9.2120025849594539e-16 0.0000000000000000e+00  0.0000000000000000e+00 1.0371407037452463e-15 0.0000000000000000e+00  0.0000000000000000e+00 0.0000000000000000e+00 0.0000000000000000e+00  0.0000000000000000e+00 0.0000000000000000e+00 0.0000000000000000e+00  0.0000000000000000e+00 -4.1743237731522874e-16 0.0000000000000000e+00  5.0143405115618305e-16 -5.8909544500806598e-16 0.0000000000000000e+00  5.8999400524930166e-16 -7.5870731828010933e-16 0.0000000000000000e+00  8.8542119658910614e-16 -9.6250546438813282e-16 0.0000000000000000e+00  1.0499385097164011e-15 -1.1434479622801283e-15 0.0000000000000000e+00  1.6268718382169115e-15 -1.1729732258782949e-15 0.0000000000000000e+00  1.4275356154641570e-15 -1.1646170659580514e-15 0.0000000000000000e+00  1.6443609777590676e-15 -1.1204255590709922e-15 0.0000000000000000e+00  1.5838323282448325e-15 -9.7392765798899482e-16 0.0000000000000000e+00  1.2109600739513270e-15 -7.8427037708517478e-16 0.0000000000000000e+00  1.3129304757961324e-15 -4.1653095595585182e-16 0.0000000000000000e+00  1.1511165594804525e-15 0.0000000000000000e+00 0.0000000000000000e+00  7.7066096669140811e-16 3.8326540101011071e-16 0.0000000000000000e+00  8.8378373224318698e-16 5.7734402153539015e-16 0.0000000000000000e+00  9.5294953610150632e-16 8.2800517774220909e-16 0.0000000000000000e+00  3.9856804997986343e-16 1.0549862849849372e-15 0.0000000000000000e+00  0.0000000000000000e+00 1.2744469822093458e-15 0.0000000000000000e+00  -6.3923601517383520e-16 1.3347636248235604e-15 0.0000000000000000e+00  -9.7133950846318892e-16 1.3488429955305012e-15 0.0000000000000000e+00  0.0000000000000000e+00 0.0000000000000000e+00 0.0000000000000000e+00  0.0000000000000000e+00 -3.5799032134741221e-16 0.0000000000000000e+00  4.0914152142357548e-16 -5.8404755790792494e-16 0.0000000000000000e+00  3.0781252831551652e-16 -8.2977910820374736e-16 0.0000000000000000e+00  6.3232969803195870e-16 -1.0397138207641952e-15 0.0000000000000000e+00  1.1484195741096718e-15 -1.1926587592608592e-15 0.0000000000000000e+00  9.8037012679141947e-16 -1.3156301751495868e-15 0.0000000000000000e+00  1.3097317726543808e-15 -1.4066205395686066e-15 0.0000000000000000e+00  1.4265653192396565e-15 -1.3140857140850308e-15 0.0000000000000000e+00  1.7794249923724806e-15 -1.1635604191305631e-15 0.0000000000000000e+00  1.5475342883497323e-15 -8.4792651719108965e-16 0.0000000000000000e+00  1.5576317602408547e-15 -6.0959267738052023e-16 0.0000000000000000e+00  1.1909228394820695e-15 -3.2654159493668596e-16 0.0000000000000000e+00  1.2868849320595336e-15 0.0000000000000000e+00 0.0000000000000000e+00  1.1859927508764385e-15 5.6717052243931087e-16 0.0000000000000000e+00  8.0822427554558416e-16 7.6141232931131393e-16 0.0000000000000000e+00  6.5327967466654908e-16 1.0750166335921301e-15 0.0000000000000000e+00  0.0000000000000000e+00 1.4678389962364170e-15 0.0000000000000000e+00  -3.8395009704408887e-16 1.7550034478199349e-15 0.0000000000000000e+00  -6.4592852214369411e-16 1.7381327407428271e-15 0.0000000000000000e+00  -8.9387956494969347e-16 1.6050997626268672e-15 0.0000000000000000e+00  0.0000000000000000e+00 0.0000000000000000e+00 0.0000000000000000e+00  0.0000000000000000e+00 -4.0275100306738155e-16 0.0000000000000000e+00  0.0000000000000000e+00 -8.4844582527698945e-16 0.0000000000000000e+00  0.0000000000000000e+00 -1.1202870845145739e-15 0.0000000000000000e+00  1.0145504930749151e-15 -1.3218545321026452e-15 0.0000000000000000e+00  1.0430152844325994e-15 -1.4701772598774762e-15 0.0000000000000000e+00  1.1453849091212016e-15 -1.5192531835202190e-15 0.0000000000000000e+00  1.4410380660054717e-15 -1.5606786189639359e-15 0.0000000000000000e+00  1.4307559445733003e-15 -1.3927672567171347e-15 0.0000000000000000e+00  1.2835340279505690e-15 -1.1256898070790893e-15 0.0000000000000000e+00  1.5529832860104839e-15 -9.0962141017004816e-16 0.0000000000000000e+00  1.0837391220566906e-15 -4.6605417230595638e-16 0.0000000000000000e+00  1.0331971892541117e-15 0.0000000000000000e+00 0.0000000000000000e+00  8.7699073575036562e-16 0.0000000000000000e+00 0.0000000000000000e+00  5.2275503768630375e-16 7.7667773861100058e-16 0.0000000000000000e+00  0.0000000000000000e+00 1.2347325007790325e-15 0.0000000000000000e+00  -3.9984364930244017e-16 1.5198884976822695e-15 0.0000000000000000e+00  -8.8189006944186031e-16 1.8411349668242313e-15 0.0000000000000000e+00  -8.5891718562606898e-16 1.9555920740115055e-15 0.0000000000000000e+00  -1.1006879389344701e-15 1.9500252768684142e-15 0.0000000000000000e+00  -1.0819257582265722e-15 1.7908217842290832e-15 0.0000000000000000e+00  0.0000000000000000e+00 0.0000000000000000e+00 0.0000000000000000e+00  0.0000000000000000e+00 -4.2980492294587400e-16 0.0000000000000000e+00  0.0000000000000000e+00 -1.0358779992098597e-15 0.0000000000000000e+00  0.0000000000000000e+00 -1.3281681178390262e-15 0.0000000000000000e+00  0.0000000000000000e+00 -1.5595978720269325e-15 0.0000000000000000e+00  5.7248042334732201e-16 -1.7063491721844870e-15 0.0000000000000000e+00  6.9807525213765751e-16 -1.7876834370174740e-15 0.0000000000000000e+00  9.3024794830772755e-16 -1.5679283975819996e-15 0.0000000000000000e+00  4.0387054362380774e-16 -1.3778103572925007e-15 0.0000000000000000e+00  4.8515401821996068e-16 -1.0591931316937019e-15 0.0000000000000000e+00  6.2727440579158891e-16 -9.7909708691341960e-16 0.0000000000000000e+00  5.9323029243175498e-16 -4.8444556213831075e-16 0.0000000000000000e+00  5.7381171683767774e-16 0.0000000000000000e+00 0.0000000000000000e+00  0.0000000000000000e+00 6.4540067657322626e-16 0.0000000000000000e+00  0.0000000000000000e+00 1.1548246053524154e-15 0.0000000000000000e+00  -5.3028551543168905e-16 1.5962141070317176e-15 0.0000000000000000e+00  -9.1890355553408009e-16 1.9778984810686130e-15 0.0000000000000000e+00  -1.0965339416988766e-15 2.1892300525937552e-15 0.0000000000000000e+00  -1.6173470855665882e-15 2.0351870829410963e-15 0.0000000000000000e+00  -1.3932531360400902e-15 1.9118092246786941e-15 0.0000000000000000e+00  -1.3120602400295192e-15 1.9564734562452159e-15 0.0000000000000000e+00  0.0000000000000000e+00 0.0000000000000000e+00 0.0000000000000000e+00  3.0238083142401541e-16 -6.6229603831912285e-16 0.0000000000000000e+00  4.8002466204280246e-16 -9.9533948083325781e-16 0.0000000000000000e+00  0.0000000000000000e+00 -1.2395657391413528e-15 0.0000000000000000e+00  0.0000000000000000e+00 -1.6071557275987449e-15 0.0000000000000000e+00  0.0000000000000000e+00 -1.7976432480258136e-15 0.0000000000000000e+00  0.0000000000000000e+00 -1.7542724787904802e-15 0.0000000000000000e+00  -4.1774895488439354e-16 -1.4661220503493925e-15 0.0000000000000000e+00  -3.3671587841401835e-16 -1.3099032120867458e-15 0.0000000000000000e+00  -3.9785228610218579e-16 -1.1758905837261351e-15 0.0000000000000000e+00  -3.5604371265297555e-16 -9.3459160258984788e-16 0.0000000000000000e+00  -3.7982660564486719e-16 -5.0472815156658177e-16 0.0000000000000000e+00  -5.9307541019721730e-16 0.0000000000000000e+00 0.0000000000000000e+00  -8.0246408694162205e-16 9.3737470740281552e-16 0.0000000000000000e+00  -7.1494122561093147e-16 1.4264626238013032e-15 0.0000000000000000e+00  -1.1092861104102103e-15 1.8536807897489821e-15 0.0000000000000000e+00  -1.3711680578041900e-15 2.2532391390093501e-15 0.0000000000000000e+00  -1.2590466644430597e-15 2.2602357478259141e-15 0.0000000000000000e+00  -1.3335677480678178e-15 2.0726618857399623e-15 0.0000000000000000e+00  -9.4745271352621648e-16 1.8485980695941986e-15 0.0000000000000000e+00  -1.1295381971678834e-15 1.8707324025788540e-15 0.0000000000000000e+00  0.0000000000000000e+00 0.0000000000000000e+00 0.0000000000000000e+00  0.0000000000000000e+00 -7.9649881257451042e-16 0.0000000000000000e+00  0.0000000000000000e+00 -9.8425914118646386e-16 0.0000000000000000e+00  0.0000000000000000e+00 -1.1881636869325827e-15 0.0000000000000000e+00  -3.5331554456423092e-16 -1.4911600105530295e-15 0.0000000000000000e+00  0.0000000000000000e+00 -1.6523822729352962e-15 0.0000000000000000e+00  -4.3649188343528387e-16 -1.5722952655380497e-15 0.0000000000000000e+00  -4.2791250555280762e-16 -1.3120543926310851e-15 0.0000000000000000e+00  -6.5722261350092109e-16 -1.0424479619420822e-15 0.0000000000000000e+00  -9.3597791557836585e-16 -1.