<?xml version="1.0"?>
<VTKFile type="UnstructuredGrid"  version="0.1"  >
<UnstructuredGrid>
<Piece  NumberOfPoints="21" NumberOfCells="20">
<Points>
<DataArray  type="Float64"  NumberOfComponents="3"  format="ascii">0 0 0  0.05 0 0  0.1 0 0  0.15 0 0  0.2 0 0  0.25 0 0  0.3 0 0  0.35 0 0  0.4 0 0  0.45 0 0  0.5 0 0  0.55 0 0  0.6 0 0  0.65 0 0  0.7 0 0  0.75 0 0  0.8 0 0  0.85 0 0  0.9 0 0  0.95 0 0  1 0 0  </DataArray>
</Points>
<Cells>
<DataArray  type="UInt32"  Name="connectivity"  format="ascii">0 1  1 2  2 3  3 4  4 5  5 6  6 7  7 8  8 9  9 10  10 11  11 12  12 13  13 14  14 15  15 16  16 17  17 18  18 19  19 20  </DataArray>
<DataArray  type="UInt32"  Name="offsets"  format="ascii">2 4 6 8 10 12 14 16 18 20 22 24 26 28 30 32 34 36 38 40 </DataArray>
<DataArray  type="UInt8"  Name="types"  format="ascii">3 3 3 3 3 3 3 3 3 3 3 3 3 3 3 3 3 3 3 3 </DataArray>
</Cells>
<PointData  Scalars="u"> 
<DataArray  type="Float64"  Name="u"  format="ascii">-1.3089359242748103e-01  1.8407305023870726e-01  4.6911341440936166e-01  7.4297146476426690e-01  9.9711320208385368e-01  1.2244127506595857e+00  1.4214577969836502e+00  1.5866542829114152e+00  1.7192618653273390e+00  1.8188070148483020e+00  1.8847723636574027e+00  1.9164122538163559e+00  1.9125895655713714e+00  1.8715768655300731e+00  1.7907621165308938e+00  1.6660559423900851e+00  1.4906418591097339e+00  1.2522738128632012e+00  9.2750423600265519e-01  4.8346928095293173e-01  -1.3089359242748111e-01  </DataArray> 
</PointData> 
</Piece>
</UnstructuredGrid>
</VTKFile>