<?xml version="1.0"?>
<VTKFile type="UnstructuredGrid"  version="0.1"  >
<UnstructuredGrid>
<Piece  NumberOfPoints="21" NumberOfCells="20">
<Points>
<DataArray  type="Float64"  NumberOfComponents="3"  format="ascii">0 0 0  0.05 0 0  0.1 0 0  0.15 0 0  0.2 0 0  0.25 0 0  0.3 0 0  0.35 0 0  0.4 0 0  0.45 0 0  0.5 0 0  0.55 0 0  0.6 0 0  0.65 0 0  0.7 0 0  0.75 0 0  0.8 0 0  0.85 0 0  0.9 0 0  0.95 0 0  1 0 0  </DataArray>
</Points>
<Cells>
<DataArray  type="UInt32"  Name="connectivity"  format="ascii">0 1  1 2  2 3  3 4  4 5  5 6  6 7  7 8  8 9  9 10  10 11  11 12  12 13  13 14  14 15  15 16  16 17  17 18  18 19  19 20  </DataArray>
<DataArray  type="UInt32"  Name="offsets"  format="ascii">2 4 6 8 10 12 14 16 18 20 22 24 26 28 30 32 34 36 38 40 </DataArray>
<DataArray  type="UInt8"  Name="types"  format="ascii">3 3 3 3 3 3 3 3 3 3 3 3 3 3 3 3 3 3 3 3 </DataArray>
</Cells>
<PointData  Scalars="u"> 
<DataArray  type="Float64"  Name="u"  format="ascii">-1.1228617250762929e-01  2.8613241691518199e-01  6.3288551037241259e-01  9.5844069217155337e-01  1.2552260305916874e+00  1.5160895656137312e+00  1.7379704541702714e+00  1.9199076644058224e+00  2.0619048291962163e+00  2.1641636612985602e+00  2.2266667736385570e+00  2.2489380483147667e+00  2.2298381012457531e+00  2.1673103951827559e+00  2.0579892561718296e+00  1.8964434896296016e+00  1.6739182774171948e+00  1.3764737337283113e+00  9.8518554985383611e-01  4.8867359435233459e-01  -1.1228617250762925e-01  </DataArray> 
</PointData> 
</Piece>
</UnstructuredGrid>
</VTKFile>