<?xml version="1.0"?>
<VTKFile type="UnstructuredGrid"  version="0.1"  >
<UnstructuredGrid>
<Piece  NumberOfPoints="21" NumberOfCells="20">
<Points>
<DataArray  type="Float64"  NumberOfComponents="3"  format="ascii">0 0 0  0.05 0 0  0.1 0 0  0.15 0 0  0.2 0 0  0.25 0 0  0.3 0 0  0.35 0 0  0.4 0 0  0.45 0 0  0.5 0 0  0.55 0 0  0.6 0 0  0.65 0 0  0.7 0 0  0.75 0 0  0.8 0 0  0.85 0 0  0.9 0 0  0.95 0 0  1 0 0  </DataArray>
</Points>
<Cells>
<DataArray  type="UInt32"  Name="connectivity"  format="ascii">0 1  1 2  2 3  3 4  4 5  5 6  6 7  7 8  8 9  9 10  10 11  11 12  12 13  13 14  14 15  15 16  16 17  17 18  18 19  19 20  </DataArray>
<DataArray  type="UInt32"  Name="offsets"  format="ascii">2 4 6 8 10 12 14 16 18 20 22 24 26 28 30 32 34 36 38 40 </DataArray>
<DataArray  type="UInt8"  Name="types"  format="ascii">3 3 3 3 3 3 3 3 3 3 3 3 3 3 3 3 3 3 3 3 </DataArray>
</Cells>
<PointData  Scalars="u"> 
<DataArray  type="Float64"  Name="u"  format="ascii">-1.3877766416067594e-01  1.4665411562686720e-01  4.0889838448513227e-01  6.6301789942768652e-01  9.0041000051927134e-01  1.1140896903702506e+00  1.3006042495284948e+00  1.4581946679324620e+00  1.5859044984984823e+00  1.6830556593724455e+00  1.7489717558362741e+00  1.7828107253737286e+00  1.7834144015691049e+00  1.7491277183124743e+00  1.6775379874375023e+00  1.5649781525388735e+00  1.4054035529901074e+00  1.1880662667727504e+00  8.9029901155834901e-01  4.7552780863668076e-01  -1.3877766416067602e-01  </DataArray> 
</PointData> 
</Piece>
</UnstructuredGrid>
</VTKFile>