<?xml version="1.0"?>
<VTKFile type="UnstructuredGrid"  version="0.1"  >
<UnstructuredGrid>
<Piece  NumberOfPoints="21" NumberOfCells="20">
<Points>
<DataArray  type="Float64"  NumberOfComponents="3"  format="ascii">0 0 0  0.05 0 0  0.1 0 0  0.15 0 0  0.2 0 0  0.25 0 0  0.3 0 0  0.35 0 0  0.4 0 0  0.45 0 0  0.5 0 0  0.55 0 0  0.6 0 0  0.65 0 0  0.7 0 0  0.75 0 0  0.8 0 0  0.85 0 0  0.9 0 0  0.95 0 0  1 0 0  </DataArray>
</Points>
<Cells>
<DataArray  type="UInt32"  Name="connectivity"  format="ascii">0 1  1 2  2 3  3 4  4 5  5 6  6 7  7 8  8 9  9 10  10 11  11 12  12 13  13 14  14 15  15 16  16 17  17 18  18 19  19 20  </DataArray>
<DataArray  type="UInt32"  Name="offsets"  format="ascii">2 4 6 8 10 12 14 16 18 20 22 24 26 28 30 32 34 36 38 40 </DataArray>
<DataArray  type="UInt8"  Name="types"  format="ascii">3 3 3 3 3 3 3 3 3 3 3 3 3 3 3 3 3 3 3 3 </DataArray>
</Cells>
<PointData  Scalars="u"> 
<DataArray  type="Float64"  Name="u"  format="ascii">-6.2320329890906322e-02  7.1757810575135406e-01  1.3106141084110425e+00  1.8168615978385598e+00  2.2480938972514815e+00  2.6035914993050224e+00  2.8849818434571195e+00  3.0953524374557446e+00  3.2383866671197317e+00  3.3171957004948593e+00  3.3334771435575119e+00  3.2871063681461554e+00  3.1761066994689120e+00  2.9970498680396145e+00  2.7459690628067874e+00  2.4198420607609301e+00  2.0189181257640993e+00  1.5500029645578015e+00  1.0313745500883744e+00  4.9105005805321200e-01  -6.2320329890906245e-02  </DataArray> 
</PointData> 
</Piece>
</UnstructuredGrid>
</VTKFile>