<?xml version="1.0"?>
<VTKFile type="UnstructuredGrid"  version="0.1"  >
<UnstructuredGrid>
<Piece  NumberOfPoints="21" NumberOfCells="20">
<Points>
<DataArray  type="Float64"  NumberOfComponents="3"  format="ascii">0 0 0  0.05 0 0  0.1 0 0  0.15 0 0  0.2 0 0  0.25 0 0  0.3 0 0  0.35 0 0  0.4 0 0  0.45 0 0  0.5 0 0  0.55 0 0  0.6 0 0  0.65 0 0  0.7 0 0  0.75 0 0  0.8 0 0  0.85 0 0  0.9 0 0  0.95 0 0  1 0 0  </DataArray>
</Points>
<Cells>
<DataArray  type="UInt32"  Name="connectivity"  format="ascii">0 1  1 2  2 3  3 4  4 5  5 6  6 7  7 8  8 9  9 10  10 11  11 12  12 13  13 14  14 15  15 16  16 17  17 18  18 19  19 20  </DataArray>
<DataArray  type="UInt32"  Name="offsets"  format="ascii">2 4 6 8 10 12 14 16 18 20 22 24 26 28 30 32 34 36 38 40 </DataArray>
<DataArray  type="UInt8"  Name="types"  format="ascii">3 3 3 3 3 3 3 3 3 3 3 3 3 3 3 3 3 3 3 3 </DataArray>
</Cells>
<PointData  Scalars="u"> 
<DataArray  type="Float64"  Name="u"  format="ascii">-8.9958600158679583e-02  4.4209549573704632e-01  8.8090851384209157e-01  1.2789239974794007e+00  1.6325966725987902e+00  1.9358498428428013e+00  2.1867638881548648e+00  2.3856715041658680e+00  2.5339093322140540e+00  2.6328102936861675e+00  2.6831120102964969e+00  2.6846255000897417e+00  2.6359846150457233e+00  2.5343873100014398e+00  2.3752941243210839e+00  2.1520859186230035e+00  1.8561738869058615e+00  1.4786452287682756e+00  1.0170597970802702e+00  4.8717642662508404e-01  -8.9958600158679625e-02  </DataArray> 
</PointData> 
</Piece>
</UnstructuredGrid>
</VTKFile>