<?xml version="1.0"?>
<VTKFile type="UnstructuredGrid"  version="0.1"  >
<UnstructuredGrid>
<Piece  NumberOfPoints="21" NumberOfCells="20">
<Points>
<DataArray  type="Float64"  NumberOfComponents="3"  format="ascii">0 0 0  0.05 0 0  0.1 0 0  0.15 0 0  0.2 0 0  0.25 0 0  0.3 0 0  0.35 0 0  0.4 0 0  0.45 0 0  0.5 0 0  0.55 0 0  0.6 0 0  0.65 0 0  0.7 0 0  0.75 0 0  0.8 0 0  0.85 0 0  0.9 0 0  0.95 0 0  1 0 0  </DataArray>
</Points>
<Cells>
<DataArray  type="UInt32"  Name="connectivity"  format="ascii">0 1  1 2  2 3  3 4  4 5  5 6  6 7  7 8  8 9  9 10  10 11  11 12  12 13  13 14  14 15  15 16  16 17  17 18  18 19  19 20  </DataArray>
<DataArray  type="UInt32"  Name="offsets"  format="ascii">2 4 6 8 10 12 14 16 18 20 22 24 26 28 30 32 34 36 38 40 </DataArray>
<DataArray  type="UInt8"  Name="types"  format="ascii">3 3 3 3 3 3 3 3 3 3 3 3 3 3 3 3 3 3 3 3 </DataArray>
</Cells>
<PointData  Scalars="u"> 
<DataArray  type="Float64"  Name="u"  format="ascii">-4.6817474387975837e-02  9.2143309974415832e-01  1.6233234598736326e+00  2.1976135973571798e+00  2.6732239611224462e+00  3.0556231149907784e+00  3.3497807453170880e+00  3.5607428913560084e+00  3.6935383697164119e+00  3.7521738820105068e+00  3.7387156517867295e+00  3.6529452460009404e+00  3.4927582145103875e+00  3.2554338600071784e+00  2.9396553523777347e+00  2.5478229751853716e+00  2.0882425733235994e+00  1.5767108470371793e+00  1.0379579310720963e+00  4.9825931097569126e-01  -4.6817474387975726e-02  </DataArray> 
</PointData> 
</Piece>
</UnstructuredGrid>
</VTKFile>