<?xml version="1.0"?>
<VTKFile type="UnstructuredGrid"  version="0.1"  >
<UnstructuredGrid>
<Piece  NumberOfPoints="21" NumberOfCells="20">
<Points>
<DataArray  type="Float64"  NumberOfComponents="3"  format="ascii">0 0 0  0.05 0 0  0.1 0 0  0.15 0 0  0.2 0 0  0.25 0 0  0.3 0 0  0.35 0 0  0.4 0 0  0.45 0 0  0.5 0 0  0.55 0 0  0.6 0 0  0.65 0 0  0.7 0 0  0.75 0 0  0.8 0 0  0.85 0 0  0.9 0 0  0.95 0 0  1 0 0  </DataArray>
</Points>
<Cells>
<DataArray  type="UInt32"  Name="connectivity"  format="ascii">0 1  1 2  2 3  3 4  4 5  5 6  6 7  7 8  8 9  9 10  10 11  11 12  12 13  13 14  14 15  15 16  16 17  17 18  18 19  19 20  </DataArray>
<DataArray  type="UInt32"  Name="offsets"  format="ascii">2 4 6 8 10 12 14 16 18 20 22 24 26 28 30 32 34 36 38 40 </DataArray>
<DataArray  type="UInt8"  Name="types"  format="ascii">3 3 3 3 3 3 3 3 3 3 3 3 3 3 3 3 3 3 3 3 </DataArray>
</Cells>
<PointData  Scalars="u"> 
<DataArray  type="Float64"  Name="u"  format="ascii">4.5303446663539238e-03  -1.6136343309099358e-02  -2.3179051737394499e-02  -2.4610581027181201e-02  -2.3638877107254874e-02  -2.1381196036811118e-02  -1.8442531925219548e-02  -1.5169228122243061e-02  -1.1789827530691004e-02  -8.4680117630069798e-03  -5.3223585235501860e-03  -2.4389921116492581e-03  1.2097400613694514e-04  2.3169903327211502e-03  4.1251837175443782e-03  5.5360214964988684e-03  6.5432676960787460e-03  7.1200291190683038e-03  7.0955908970041833e-03  6.0299581512949663e-03  4.5303446663539490e-03  </DataArray> 
</PointData> 
</Piece>
</UnstructuredGrid>
</VTKFile>