<?xml version="1.0"?>
<VTKFile type="UnstructuredGrid"  version="0.1"  >
<UnstructuredGrid>
<Piece  NumberOfPoints="21" NumberOfCells="20">
<Points>
<DataArray  type="Float64"  NumberOfComponents="3"  format="ascii">0 0 0  0.05 0 0  0.1 0 0  0.15 0 0  0.2 0 0  0.25 0 0  0.3 0 0  0.35 0 0  0.4 0 0  0.45 0 0  0.5 0 0  0.55 0 0  0.6 0 0  0.65 0 0  0.7 0 0  0.75 0 0  0.8 0 0  0.85 0 0  0.9 0 0  0.95 0 0  1 0 0  </DataArray>
</Points>
<Cells>
<DataArray  type="UInt32"  Name="connectivity"  format="ascii">0 1  1 2  2 3  3 4  4 5  5 6  6 7  7 8  8 9  9 10  10 11  11 12  12 13  13 14  14 15  15 16  16 17  17 18  18 19  19 20  </DataArray>
<DataArray  type="UInt32"  Name="offsets"  format="ascii">2 4 6 8 10 12 14 16 18 20 22 24 26 28 30 32 34 36 38 40 </DataArray>
<DataArray  type="UInt8"  Name="types"  format="ascii">3 3 3 3 3 3 3 3 3 3 3 3 3 3 3 3 3 3 3 3 </DataArray>
</Cells>
<PointData  Scalars="u"> 
<DataArray  type="Float64"  Name="u"  format="ascii">4.5303446663539325e-03  -5.4136343309099388e-02  -9.5179051737394507e-02  -1.2661058102718126e-01  -1.5163887710725493e-01  -1.7138119603681115e-01  -1.8644253192521965e-01  -1.9716922812224311e-01  -2.0378982753069103e-01  -2.0646801176300711e-01  -2.0532235852355021e-01  -2.0043899211164934e-01  -1.9187902599386306e-01  -1.7968300966727890e-01  -1.6387481628245562e-01  -1.4446397850350118e-01  -1.2145673230392123e-01  -9.4879970880931752e-02  -6.4904409102995803e-02  -3.1970041848705083e-02  4.5303446663539533e-03  </DataArray> 
</PointData> 
</Piece>
</UnstructuredGrid>
</VTKFile>