<?xml version="1.0"?>
<VTKFile type="UnstructuredGrid"  version="0.1"  >
<UnstructuredGrid>
<Piece  NumberOfPoints="441" NumberOfCells="800">
<Points>
<DataArray  type="Float64"  NumberOfComponents="3"  format="ascii">0 0 0  0.05 0 0  0.1 0 0  0.15 0 0  0.2 0 0  0.25 0 0  0.3 0 0  0.35 0 0  0.4 0 0  0.45 0 0  0.5 0 0  0.55 0 0  0.6 0 0  0.65 0 0  0.7 0 0  0.75 0 0  0.8 0 0  0.85 0 0  0.9 0 0  0.95 0 0  1 0 0  0 0.05 0  0.05 0.05 0  0.1 0.05 0  0.15 0.05 0  0.2 0.05 0  0.25 0.05 0  0.3 0.05 0  0.35 0.05 0  0.4 0.05 0  0.45 0.05 0  0.5 0.05 0  0.55 0.05 0  0.6 0.05 0  0.65 0.05 0  0.7 0.05 0  0.75 0.05 0  0.8 0.05 0  0.85 0.05 0  0.9 0.05 0  0.95 0.05 0  1 0.05 0  0 0.1 0  0.05 0.1 0  0.1 0.1 0  0.15 0.1 0  0.2 0.1 0  0.25 0.1 0  0.3 0.1 0  0.35 0.1 0  0.4 0.1 0  0.45 0.1 0  0.5 0.1 0  0.55 0.1 0  0.6 0.1 0  0.65 0.1 0  0.7 0.1 0  0.75 0.1 0  0.8 0.1 0  0.85 0.1 0  0.9 0.1 0  0.95 0.1 0  1 0.1 0  0 0.15 0  0.05 0.15 0  0.1 0.15 0  0.15 0.15 0  0.2 0.15 0  0.25 0.15 0  0.3 0.15 0  0.35 0.15 0  0.4 0.15 0  0.45 0.15 0  0.5 0.15 0  0.55 0.15 0  0.6 0.15 0  0.65 0.15 0  0.7 0.15 0  0.75 0.15 0  0.8 0.15 0  0.85 0.15 0  0.9 0.15 0  0.95 0.15 0  1 0.15 0  0 0.2 0  0.05 0.2 0  0.1 0.2 0  0.15 0.2 0  0.2 0.2 0  0.25 0.2 0  0.3 0.2 0  0.35 0.2 0  0.4 0.2 0  0.45 0.2 0  0.5 0.2 0  0.55 0.2 0  0.6 0.2 0  0.65 0.2 0  0.7 0.2 0  0.75 0.2 0  0.8 0.2 0  0.85 0.2 0  0.9 0.2 0  0.95 0.2 0  1 0.2 0  0 0.25 0  0.05 0.25 0  0.1 0.25 0  0.15 0.25 0  0.2 0.25 0  0.25 0.25 0  0.3 0.25 0  0.35 0.25 0  0.4 0.25 0  0.45 0.25 0  0.5 0.25 0  0.55 0.25 0  0.6 0.25 0  0.65 0.25 0  0.7 0.25 0  0.75 0.25 0  0.8 0.25 0  0.85 0.25 0  0.9 0.25 0  0.95 0.25 0  1 0.25 0  0 0.3 0  0.05 0.3 0  0.1 0.3 0  0.15 0.3 0  0.2 0.3 0  0.25 0.3 0  0.3 0.3 0  0.35 0.3 0  0.4 0.3 0  0.45 0.3 0  0.5 0.3 0  0.55 0.3 0  0.6 0.3 0  0.65 0.3 0  0.7 0.3 0  0.75 0.3 0  0.8 0.3 0  0.85 0.3 0  0.9 0.3 0  0.95 0.3 0  1 0.3 0  0 0.35 0  0.05 0.35 0  0.1 0.35 0  0.15 0.35 0  0.2 0.35 0  0.25 0.35 0  0.3 0.35 0  0.35 0.35 0  0.4 0.35 0  0.45 0.35 0  0.5 0.35 0  0.55 0.35 0  0.6 0.35 0  0.65 0.35 0  0.7 0.35 0  0.75 0.35 0  0.8 0.35 0  0.85 0.35 0  0.9 0.35 0  0.95 0.35 0  1 0.35 0  0 0.4 0  0.05 0.4 0  0.1 0.4 0  0.15 0.4 0  0.2 0.4 0  0.25 0.4 0  0.3 0.4 0  0.35 0.4 0  0.4 0.4 0  0.45 0.4 0  0.5 0.4 0  0.55 0.4 0  0.6 0.4 0  0.65 0.4 0  0.7 0.4 0  0.75 0.4 0  0.8 0.4 0  0.85 0.4 0  0.9 0.4 0  0.95 0.4 0  1 0.4 0  0 0.45 0  0.05 0.45 0  0.1 0.45 0  0.15 0.45 0  0.2 0.45 0  0.25 0.45 0  0.3 0.45 0  0.35 0.45 0  0.4 0.45 0  0.45 0.45 0  0.5 0.45 0  0.55 0.45 0  0.6 0.45 0  0.65 0.45 0  0.7 0.45 0  0.75 0.45 0  0.8 0.45 0  0.85 0.45 0  0.9 0.45 0  0.95 0.45 0  1 0.45 0  0 0.5 0  0.05 0.5 0  0.1 0.5 0  0.15 0.5 0  0.2 0.5 0  0.25 0.5 0  0.3 0.5 0  0.35 0.5 0  0.4 0.5 0  0.45 0.5 0  0.5 0.5 0  0.55 0.5 0  0.6 0.5 0  0.65 0.5 0  0.7 0.5 0  0.75 0.5 0  0.8 0.5 0  0.85 0.5 0  0.9 0.5 0  0.95 0.5 0  1 0.5 0  0 0.55 0  0.05 0.55 0  0.1 0.55 0  0.15 0.55 0  0.2 0.55 0  0.25 0.55 0  0.3 0.55 0  0.35 0.55 0  0.4 0.55 0  0.45 0.55 0  0.5 0.55 0  0.55 0.55 0  0.6 0.55 0  0.65 0.55 0  0.7 0.55 0  0.75 0.55 0  0.8 0.55 0  0.85 0.55 0  0.9 0.55 0  0.95 0.55 0  1 0.55 0  0 0.6 0  0.05 0.6 0  0.1 0.6 0  0.15 0.6 0  0.2 0.6 0  0.25 0.6 0  0.3 0.6 0  0.35 0.6 0  0.4 0.6 0  0.45 0.6 0  0.5 0.6 0  0.55 0.6 0  0.6 0.6 0  0.65 0.6 0  0.7 0.6 0  0.75 0.6 0  0.8 0.6 0  0.85 0.6 0  0.9 0.6 0  0.95 0.6 0  1 0.6 0  0 0.65 0  0.05 0.65 0  0.1 0.65 0  0.15 0.65 0  0.2 0.65 0  0.25 0.65 0  0.3 0.65 0  0.35 0.65 0  0.4 0.65 0  0.45 0.65 0  0.5 0.65 0  0.55 0.65 0  0.6 0.65 0  0.65 0.65 0  0.7 0.65 0  0.75 0.65 0  0.8 0.65 0  0.85 0.65 0  0.9 0.65 0  0.95 0.65 0  1 0.65 0  0 0.7 0  0.05 0.7 0  0.1 0.7 0  0.15 0.7 0  0.2 0.7 0  0.25 0.7 0  0.3 0.7 0  0.35 0.7 0  0.4 0.7 0  0.45 0.7 0  0.5 0.7 0  0.55 0.7 0  0.6 0.7 0  0.65 0.7 0  0.7 0.7 0  0.75 0.7 0  0.8 0.7 0  0.85 0.7 0  0.9 0.7 0  0.95 0.7 0  1 0.7 0  0 0.75 0  0.05 0.75 0  0.1 0.75 0  0.15 0.75 0  0.2 0.75 0  0.25 0.75 0  0.3 0.75 0  0.35 0.75 0  0.4 0.75 0  0.45 0.75 0  0.5 0.75 0  0.55 0.75 0  0.6 0.75 0  0.65 0.75 0  0.7 0.75 0  0.75 0.75 0  0.8 0.75 0  0.85 0.75 0  0.9 0.75 0  0.95 0.75 0  1 0.75 0  0 0.8 0  0.05 0.8 0  0.1 0.8 0  0.15 0.8 0  0.2 0.8 0  0.25 0.8 0  0.3 0.8 0  0.35 0.8 0  0.4 0.8 0  0.45 0.8 0  0.5 0.8 0  0.55 0.8 0  0.6 0.8 0  0.65 0.8 0  0.7 0.8 0  0.75 0.8 0  0.8 0.8 0  0.85 0.8 0  0.9 0.8 0  0.95 0.8 0  1 0.8 0  0 0.85 0  0.05 0.85 0  0.1 0.85 0  0.15 0.85 0  0.2 0.85 0  0.25 0.85 0  0.3 0.85 0  0.35 0.85 0  0.4 0.85 0  0.45 0.85 0  0.5 0.85 0  0.55 0.85 0  0.6 0.85 0  0.65 0.85 0  0.7 0.85 0  0.75 0.85 0  0.8 0.85 0  0.85 0.85 0  0.9 0.85 0  0.95 0.85 0  1 0.85 0  0 0.9 0  0.05 0.9 0  0.1 0.9 0  0.15 0.9 0  0.2 0.9 0  0.25 0.9 0  0.3 0.9 0  0.35 0.9 0  0.4 0.9 0  0.45 0.9 0  0.5 0.9 0  0.55 0.9 0  0.6 0.9 0  0.65 0.9 0  0.7 0.9 0  0.75 0.9 0  0.8 0.9 0  0.85 0.9 0  0.9 0.9 0  0.95 0.9 0  1 0.9 0  0 0.95 0  0.05 0.95 0  0.1 0.95 0  0.15 0.95 0  0.2 0.95 0  0.25 0.95 0  0.3 0.95 0  0.35 0.95 0  0.4 0.95 0  0.45 0.95 0  0.5 0.95 0  0.55 0.95 0  0.6 0.95 0  0.65 0.95 0  0.7 0.95 0  0.75 0.95 0  0.8 0.95 0  0.85 0.95 0  0.9 0.95 0  0.95 0.95 0  1 0.95 0  0 1 0  0.05 1 0  0.1 1 0  0.15 1 0  0.2 1 0  0.25 1 0  0.3 1 0  0.35 1 0  0.4 1 0  0.45 1 0  0.5 1 0  0.55 1 0  0.6 1 0  0.65 1 0  0.7 1 0  0.75 1 0  0.8 1 0  0.85 1 0  0.9 1 0  0.95 1 0  1 1 0  </DataArray>
</Points>
<Cells>
[...]
<PointData  Scalars="u"> 
<DataArray  type="Float64"  Name="u"  format="ascii">-3.2635258342154247e+00  -8.6619887806395110e-02  9.7701446904632494e-01  1.4258352028268626e+00  1.6065302469749947e+00  1.6647915391501171e+00  1.6534812801592065e+00  1.5988511790293980e+00  1.5152929389664846e+00  1.4114381458240775e+00  1.2932456488974453e+00  1.1649828637821795e+00  1.0299800789510087e+00  8.9080570453310992e-01  7.4982049470014378e-01  6.0856046273605491e-01  4.6478783411446611e-01  3.2361438207725468e-01  8.8566625611348052e-02  -8.5761391989369690e-02  -1.5237266320364487e-01  -8.5074258978210859e-01  -2.2143457108951034e-01  8.4526969766709248e-01  1.2889546359529898e+00  1.4854356336838899e+00  1.5625087534568560e+00  1.5652085197615722e+00  1.5226004067831138e+00  1.4494534049022165e+00  1.3549555095880661e+00  1.2453969807770038e+00  1.1252073671461940e+00  9.9773422966385539e-01  8.6557197004486108e-01  7.3075926374399758e-01  5.9452029068512813e-01  4.5625498500901335e-01  3.1022786587908080e-01  1.2858869298627279e-01  -2.9605172264383865e-02  -9.8143673291746114e-02  -1.9884043363367579e-01  1.7018956252323975e-01  1.0501990687327880e+00  1.2900228022870723e+00  1.4470167825862934e+00  1.5075662490253774e+00  1.5065968533282323e+00  1.4660295904534653e+00  1.3971317061177038e+00  1.3080200484039619e+00  1.2043669446496992e+00  1.0902657427289517e+00  9.6884757307516933e-01  8.4252594260713809e-01  7.1317099442201370e-01  5.8212717920067880e-01  4.4865207529199752e-01  3.1229402211703677e-01  1.4813746784929835e-01  -4.4083386716275343e-03  -1.0716564339767785e-01  2.1533079888206746e-01  5.7620738234284019e-01  1.1982091580896146e+00  1.3427847280185141e+00  1.4563657775206309e+00  1.4849421087430008e+00  1.4717505251074154e+00  1.4263862433391032e+00  1.3571004615941182e+00  1.2701232705609524e+00  1.1700080409125189e+00  1.0602326359863947e+00  9.4352975028121244e-01  8.2205104155963094e-01  6.9752865076015480e-01  5.7126710456960872e-01  4.4317861430277117e-01  3.1311015685948779e-01  1.5758625816034674e-01  8.3116850107820949e-03  -9.9001708524449450e-02  5.2714463056679617e-01  8.3423531962353004e-01  1.3331643920743259e+00  1.4244775645856103e+00  1.4832172511278903e+00  1.4822783693417985e+00  1.4539322027028678e+00  1.4001134337014429e+00  1.3275825198113800e+00  1.2403753410456497e+00  1.1419279045395099e+00  1.0349943115165225e+00  9.2182561939946450e-01  8.0426201443776713e-01  6.8383942624939320e-01  5.6179476064636003e-01  4.3814138389572438e-01  3.1261567786933736e-01  1.6395766066103068e-01  1.9615750824599761e-02  -8.8736456227101357e-02  7.6661142836408780e-01  1.0332848338636609e+00  1.4469214780992961e+00  1.4917255662791875e+00  1.5128422185721926e+00  1.4899911651062687e+00  1.4460953182933383e+00  1.3831966811393943e+00  1.3061499846544180e+00  1.2173267019003107e+00  1.1192862118817719e+00  1.0140810618471374e+00  9.0349053459491580e-01  7.8902659184909951e-01  6.7199836840336280e-01  5.5348327081274062e-01  4.3348055586803008e-01  3.1163466226889919e-01  1.6912459539014923e-01  2.9905499893135040e-02  -7.7853127689201551e-02  9.6764284947954149e-01  1.1918113491807489e+00  1.5324281845495906e+00  1.5468601199483989e+00  1.5422415175183697e+00  1.5007324905949162e+00  1.4435186191482965e+00  1.3724353703550380e+00  1.2905731613633589e+00  1.1995323792081809e+00  1.1011527559994536e+00  9.9690675992951616e-01  8.8816269990993113e-01  7.7612065843262834e-01  6.6185562584467883e-01  5.4626354669447541e-01  4.2931068702519010e-01  3.1060481955008756e-01  1.7374764208508514e-01  3.9611637457495796e-02  -6.7044088654042364e-02  1.1401996112193975e+00  1.3221386633865879e+00  1.5992968281467987e+00  1.5914264298054022e+00  1.5667569838927931e+00  1.5110326182652167e+00  1.4434972628677081e+00  1.3653466350922168e+00  1.2790258655061915e+00  1.1856901141382605e+00  1.0866104043051654e+00  9.8284487424562550e-01  8.7542210482882110e-01  7.6526981687676476e-01  6.5324735369114484e-01  5.4007837335132891e-01  4.2570443090438098e-01  3.0973381606417916e-01  1.7806524290844311e-01  4.8721949502393294e-02  -5.6818398599608716e-02  1.2910723267837603e+00  1.4322738909089101e+00  1.6521203131695992e+00  1.6264685639188401e+00  1.5863589008032724e+00  1.5199650611527524e+00  1.4442468334398637e+00  1.3602892081238018e+00  1.2701894762591366e+00  1.1747424706391625e+00  1.0748619446142411e+00  9.7131308856584964e-01  8.6485453780766575e-01  7.5619186273259209e-01  6.4599857797064586e-01  5.3484773382487660e-01  4.2266836254919954e-01  3.0908685629575933e-01  1.8213284503505661e-01  5.7185409571523786e-02  -4.7355304699511144e-02  1.4242136983713893e+00  1.5267286482249953e+00  1.6944375270108647e+00  1.6541205209793175e+00  1.6016456985449503e+00  1.5269621469684245e+00  1.4448568799021206e+00  1.3563240439066508e+00  1.2631376275594564e+00  1.1658875948934362e+00  1.0652616483594581e+00  9.6180790912719127e-01  8.5608287553340467e-01  7.4861705313565086e-01  6.3993032853802978e-01  5.3046972637031864e-01  4.2016185024416969e-01  3.0865923965287478e-01  1.8594756669688367e-01  6.4964814029910611e-02  -3.8748969830413413e-02  1.5420492108260286e+00  1.6084563563394825e+00  1.7287742136292306e+00  1.6759677661517791e+00  1.6132860029945211e+00  1.5320942924146292e+00  1.4450177632078174e+00  1.3529023117387780e+00  1.2572624562269288e+00  1.1585594621515021e+00  1.0573137737132161e+00  9.5391941287301862e-01  8.4878435829996135e-01  7.4230268508559982e-01  6.3487090385423683e-01  5.2683302366394802e-01  4.1812072708999681e-01  3.0841706950670256e-01  1.8948886138313129e-01  7.2037685870744259e-02  -3.1025452349634403e-02  1.6461734677818172e+00  1.6793916082697153e+00  1.7568681274942755e+00  1.6932745382238785e+00  1.6220184073873318e+00  1.5356293875887213e+00  1.4446461919231270e+00  1.3497456721636676e+00  1.2522023172156838e+00  1.1523730075580438e+00  1.0506537992055582e+00  9.4732897244983583e-01  8.4269481988303818e-01  7.3704044762634813e-01  6.3066475587456816e-01  5.2382864224953807e-01  4.1647413201521288e-01  3.0831777300343710e-01  1.9273427420424535e-01  7.8396842817110055e-02  -2.4174652546278957e-02  1.7376519544174189e+00  1.7408401469679555e+00  1.7799536925557518e+00  1.7070110532231864e+00  1.6284748318861675e+00  1.5378807547920827e+00  1.4438095735997016e+00  1.3467531161832547e+00  1.2477530939204819e+00  1.1470778386172735e+00  1.0450257123944278e+00  9.4179798544811522e-01  8.3760611810165564e-01  7.3265879832311298e-01  6.2717789866295592e-01  5.2135795115622030e-01  4.1515458510464898e-01  3.0832011385089353e-01  1.9566518150668114e-01  8.4045571161963373e-02  -1.8167835612092113e-02  1.8172169940714606e+00  1.7937047335170391e+00  1.7989110763722078e+00  1.7179077229615820e+00  1.6331789202064770e+00  1.5391611533798089e+00  1.4426376999965889e+00  1.3439150402753373e+00  1.2438134615188139e+00  1.1425217247186161e+00  1.0402562449837103e+00  9.3715350901602146e-01  8.3335972792674085e-01  7.2902142921800850e-01  6.2429975270718763e-01  5.1933674628149540e-01  4.1410308362354270e-01  3.0838851748852214e-01  1.9826802141773370e-01  8.8993328691268997e-02  -1.2968712911456289e-02  1.8853812967612933e+00  1.8386193813230649e+00  1.8143739382309831e+00  1.7265138961423574e+00  1.6365507732976461e+00  1.5397483625254054e+00  1.4412772410749761e+00  1.3412720345580733e+00  1.2403469769581077e+00  1.1386184368580863e+00  1.0362326795907666e+00  9.3327437610523556e-01  8.2983857041622422e-01  7.2602346418458663e-01  6.2194241440104014e-01  5.1769639090675013e-01  4.1327096938248553e-01  3.0849436230109373e-01  2.0053383706391176e-01  9.3252360435252118e-02  -8.5403650012654646e-03  1.9425094061601120e+00  1.8760342142140769e+00  1.8268012684748092e+00  1.7332406306586394e+00  1.6389200527004266e+00  1.5398770416403604e+00  1.4398703186423965e+00  1.3388863624040919e+00  1.2373537372098591e+00  1.1353246673341650e+00  1.0328853446441231e+00  9.3007845583683768e-01  8.2695865782744160e-01  7.2358663669152568e-01  6.2003833578529344e-01  5.1638309128145454e-01  4.1261992608225667e-01  3.0861580033830427e-01  2.0245727290434590e-01  9.6835332179062927e-02  -4.8491574996528865e-03  1.9888553419125687e+00  1.9062708495345486e+00  1.8365257989836381e+00  1.7383932201055605e+00  1.6405409554277648e+00  1.5397378551571921e+00  1.4385426442501781e+00  1.3368249950755573e+00  1.2348526716663037e+00  1.1326236225224864e+00  1.0301736993857951e+00  9.2751197535832730e-01  8.2466152640475598e-01  7.2165427417515360e-01  6.1853724653378728e-01  5.1535614776446093e-01  4.1212091196917894e-01  3.0873672224934223e-01  2.0403539479702418e-01  9.9753856903439811e-02  -1.8666499185869391e-03  2.0246142150706614e+00  1.9295603070657878e+00  1.8437835448316879e+00  1.7421958926764993e+00  1.6416050192506360e+00  1.5394801274497398e+00  1.4373985711610273e+00  1.3351500752301009e+00  1.2328699003806531e+00  1.1305133762224409e+00  1.0280760481443021e+00  9.2554113739699806e-01  8.2290781121919676e-01  7.2018664696260914e-01  6.1740298742129684e-01  5.1458598597474892e-01  4.1175284191398770e-01  3.0884598353702680e-01  2.0526737205990592e-01  1.0201790794795866e-01  4.2971243175376843e-04  2.0499454607487633e+00  1.9460261722254442e+00  1.8487490732089593e+00  1.7448083787068356e+00  1.6422518331349572e+00  1.5392151095632400e+00  1.4365192133489029e+00  1.3339130097118888e+00  1.2314310823007004e+00  1.1289987130173220e+00  1.0265819104456966e+00  9.2414552410932971e-01  8.2167193041550979e-01  7.1915689453498122e-01  6.1661066652572349e-01  5.1405193032201024e-01  4.1150057666097356e-01  3.0893585901760490e-01  2.0615197292005014e-01  1.0363376475686754e-01  2.0566047828046016e-03  2.0643825207804158e+00  1.9558811259075966e+00  1.8515195847976296e+00  1.7463413226887574e+00  1.6425713966508477e+00  1.5390221326158462e+00  1.4359610733834152e+00  1.3331530267874800e+00  1.2305575087864837e+00  1.1280868928780585e+00  1.0256875951686413e+00  9.2331410056897667e-01  8.2093866213099453e-01  7.1854833786984007e-01  6.1614460117835457e-01  5.1374030343266552e-01  4.1135533533031643e-01  3.0900311508703115e-01  2.0669059560430930e-01  1.0461267482332032e-01  3.0270540198522361e-03  2.0706565807305060e+00  1.9590034332001665e+00  1.8522405413237435e+00  1.7468213440956475e+00  1.6426542263838217e+00  1.5389315940260200e+00  1.4357645185095005e+00  1.3328891607705782e+00  1.2302612875161900e+00  1.1277804172759298e+00  1.0253898102365164e+00  9.2303933301923458e-01  8.2069827826976549e-01  7.1835063200496363e-01  6.1599510368792643e-01  5.1364250308463610e-01  4.1131304078664477e-01  3.0903802828469901e-01  2.0688121116317279e-01  1.0494840784230071e-01  3.3300041537573728e-03  </DataArray> 
</PointData> 
</Piece>
</UnstructuredGrid>
</VTKFile>