<?xml version="1.0"?>
<VTKFile type="UnstructuredGrid"  version="0.1"  >
<UnstructuredGrid>
<Piece  NumberOfPoints="21" NumberOfCells="20">
<Points>
<DataArray  type="Float64"  NumberOfComponents="3"  format="ascii">0 0 0  0.05 0 0  0.1 0 0  0.15 0 0  0.2 0 0  0.25 0 0  0.3 0 0  0.35 0 0  0.4 0 0  0.45 0 0  0.5 0 0  0.55 0 0  0.6 0 0  0.65 0 0  0.7 0 0  0.75 0 0  0.8 0 0  0.85 0 0  0.9 0 0  0.95 0 0  1 0 0  </DataArray>
</Points>
<Cells>
<DataArray  type="UInt32"  Name="connectivity"  format="ascii">0 1  1 2  2 3  3 4  4 5  5 6  6 7  7 8  8 9  9 10  10 11  11 12  12 13  13 14  14 15  15 16  16 17  17 18  18 19  19 20  </DataArray>
<DataArray  type="UInt32"  Name="offsets"  format="ascii">2 4 6 8 10 12 14 16 18 20 22 24 26 28 30 32 34 36 38 40 </DataArray>
<DataArray  type="UInt8"  Name="types"  format="ascii">3 3 3 3 3 3 3 3 3 3 3 3 3 3 3 3 3 3 3 3 </DataArray>
</Cells>
<PointData  Scalars="u"> 
<DataArray  type="Float64"  Name="u"  format="ascii">1.0757800052277875e-03  -5.7684643091210856e-03  -1.0052157317756755e-03  8.5180319821602894e-03  1.9394309508555890e-02  3.0291008831119737e-02  4.0516855654936630e-02  4.9706315337421689e-02  5.7642224034685219e-02  6.4176593750988775e-02  6.9196087732743897e-02  7.2600949708957599e-02  7.4290735245827397e-02  7.4152073087018225e-02  7.2044065754709480e-02  6.7778127921265516e-02  6.1083902895326350e-02  5.1563904251586891e-02  3.8616105311477092e-02  2.1621272519965935e-02  1.0757800052278296e-03  </DataArray> 
</PointData> 
</Piece>
</UnstructuredGrid>
</VTKFile>