<?xml version="1.0"?>
<VTKFile type="UnstructuredGrid"  version="0.1"  >
<UnstructuredGrid>
<Piece  NumberOfPoints="21" NumberOfCells="20">
<Points>
<DataArray  type="Float64"  NumberOfComponents="3"  format="ascii">0 0 0  0.05 0 0  0.1 0 0  0.15 0 0  0.2 0 0  0.25 0 0  0.3 0 0  0.35 0 0  0.4 0 0  0.45 0 0  0.5 0 0  0.55 0 0  0.6 0 0  0.65 0 0  0.7 0 0  0.75 0 0  0.8 0 0  0.85 0 0  0.9 0 0  0.95 0 0  1 0 0  </DataArray>
</Points>
<Cells>
<DataArray  type="UInt32"  Name="connectivity"  format="ascii">0 1  1 2  2 3  3 4  4 5  5 6  6 7  7 8  8 9  9 10  10 11  11 12  12 13  13 14  14 15  15 16  16 17  17 18  18 19  19 20  </DataArray>
<DataArray  type="UInt32"  Name="offsets"  format="ascii">2 4 6 8 10 12 14 16 18 20 22 24 26 28 30 32 34 36 38 40 </DataArray>
<DataArray  type="UInt8"  Name="types"  format="ascii">3 3 3 3 3 3 3 3 3 3 3 3 3 3 3 3 3 3 3 3 </DataArray>
</Cells>
<PointData  Scalars="u"> 
<DataArray  type="Float64"  Name="u"  format="ascii">2.9677588159146958e-04  3.2012620127708389e-03  1.5377460623362363e-02  3.1228801955142296e-02  4.7495483224199414e-02  6.2835902572432531e-02  7.6579128698150631e-02  8.8398220805618516e-02  9.8122057373681890e-02  1.0564154000717454e-01  1.1086455202721283e-01  1.1368977931078456e-01  1.1399206898918880e-01  1.1161519643751343e-01  1.0636867903979434e-01  9.8026153680777148e-02  8.6320379467377598e-02  7.0938941308559419e-02  5.1508287187581776e-02  2.7759398245631086e-02  2.9677588159150687e-04  </DataArray> 
</PointData> 
</Piece>
</UnstructuredGrid>
</VTKFile>