<?xml version="1.0"?>
<VTKFile type="UnstructuredGrid"  version="0.1"  >
<UnstructuredGrid>
<Piece  NumberOfPoints="21" NumberOfCells="20">
<Points>
<DataArray  type="Float64"  NumberOfComponents="3"  format="ascii">0 0 0  0.05 0 0  0.1 0 0  0.15 0 0  0.2 0 0  0.25 0 0  0.3 0 0  0.35 0 0  0.4 0 0  0.45 0 0  0.5 0 0  0.55 0 0  0.6 0 0  0.65 0 0  0.7 0 0  0.75 0 0  0.8 0 0  0.85 0 0  0.9 0 0  0.95 0 0  1 0 0  </DataArray>
</Points>
<Cells>
<DataArray  type="UInt32"  Name="connectivity"  format="ascii">0 1  1 2  2 3  3 4  4 5  5 6  6 7  7 8  8 9  9 10  10 11  11 12  12 13  13 14  14 15  15 16  16 17  17 18  18 19  19 20  </DataArray>
<DataArray  type="UInt32"  Name="offsets"  format="ascii">2 4 6 8 10 12 14 16 18 20 22 24 26 28 30 32 34 36 38 40 </DataArray>
<DataArray  type="UInt8"  Name="types"  format="ascii">3 3 3 3 3 3 3 3 3 3 3 3 3 3 3 3 3 3 3 3 </DataArray>
</Cells>
<PointData  Scalars="u"> 
<DataArray  type="Float64"  Name="u"  format="ascii">3.6038396635566373e-03  -1.4871313217273939e-02  -1.9927641034456982e-02  -1.9449026638476648e-02  -1.6703474281325095e-02  -1.2858233774586935e-02  -8.5423236241275839e-03  -4.1134242697244659e-03  1.9454701705682648e-04  4.2144193136796522e-03  7.8238529335556903e-03  1.0931405353901216e-02  1.3467951292183903e-02  1.5380851772215749e-02  1.6628023498548035e-02  1.7171510318107916e-02  1.6957750841288123e-02  1.5874917220379533e-02  1.3588038474800749e-02  9.4231472577481976e-03  3.6038396635566746e-03  </DataArray> 
</PointData> 
</Piece>
</UnstructuredGrid>
</VTKFile>