<?xml version="1.0"?>
<VTKFile type="UnstructuredGrid"  version="0.1"  >
<UnstructuredGrid>
<Piece  NumberOfPoints="21" NumberOfCells="20">
<Points>
<DataArray  type="Float64"  NumberOfComponents="3"  format="ascii">0 0 0  0.05 0 0  0.1 0 0  0.15 0 0  0.2 0 0  0.25 0 0  0.3 0 0  0.35 0 0  0.4 0 0  0.45 0 0  0.5 0 0  0.55 0 0  0.6 0 0  0.65 0 0  0.7 0 0  0.75 0 0  0.8 0 0  0.85 0 0  0.9 0 0  0.95 0 0  1 0 0  </DataArray>
</Points>
<Cells>
<DataArray  type="UInt32"  Name="connectivity"  format="ascii">0 1  1 2  2 3  3 4  4 5  5 6  6 7  7 8  8 9  9 10  10 11  11 12  12 13  13 14  14 15  15 16  16 17  17 18  18 19  19 20  </DataArray>
<DataArray  type="UInt32"  Name="offsets"  format="ascii">2 4 6 8 10 12 14 16 18 20 22 24 26 28 30 32 34 36 38 40 </DataArray>
<DataArray  type="UInt8"  Name="types"  format="ascii">3 3 3 3 3 3 3 3 3 3 3 3 3 3 3 3 3 3 3 3 </DataArray>
</Cells>
<PointData  Scalars="u"> 
<DataArray  type="Float64"  Name="u"  format="ascii">2.2002625072112753e-03  -1.1294658005834162e-02  -1.2016572154801819e-02  -7.4685179863322225e-03  -1.0131488989289939e-03  6.0928857955847111e-03  1.3182307053000815e-02  1.9885421535348322e-02  2.5968357382009540e-02  3.1266465079911661e-02  3.5657187604037660e-02  3.9043130957835806e-02  4.1340927557755827e-02  4.2472231712000208e-02  4.2352889200695916e-02  4.0877053938477945e-02  3.7881729309003069e-02  3.3080838891983426e-02  2.5902857847973703e-02  1.5531567187152382e-02  2.2002625072113148e-03  </DataArray> 
</PointData> 
</Piece>
</UnstructuredGrid>
</VTKFile>