<?xml version="1.0"?>
<VTKFile type="UnstructuredGrid"  version="0.1"  >
<UnstructuredGrid>
<Piece  NumberOfPoints="21" NumberOfCells="20">
<Points>
<DataArray  type="Float64"  NumberOfComponents="3"  format="ascii">0 0 0  0.05 0 0  0.1 0 0  0.15 0 0  0.2 0 0  0.25 0 0  0.3 0 0  0.35 0 0  0.4 0 0  0.45 0 0  0.5 0 0  0.55 0 0  0.6 0 0  0.65 0 0  0.7 0 0  0.75 0 0  0.8 0 0  0.85 0 0  0.9 0 0  0.95 0 0  1 0 0  </DataArray>
</Points>
<Cells>
<DataArray  type="UInt32"  Name="connectivity"  format="ascii">0 1  1 2  2 3  3 4  4 5  5 6  6 7  7 8  8 9  9 10  10 11  11 12  12 13  13 14  14 15  15 16  16 17  17 18  18 19  19 20  </DataArray>
<DataArray  type="UInt32"  Name="offsets"  format="ascii">2 4 6 8 10 12 14 16 18 20 22 24 26 28 30 32 34 36 38 40 </DataArray>
<DataArray  type="UInt8"  Name="types"  format="ascii">3 3 3 3 3 3 3 3 3 3 3 3 3 3 3 3 3 3 3 3 </DataArray>
</Cells>
<PointData  Scalars="u"> 
<DataArray  type="Float64"  Name="u"  format="ascii">4.4219246162283919e-03  -1.6021769781265863e-02  -2.2859599874515493e-02  -2.4092598293253324e-02  -2.2935431794349197e-02  -2.0510813466209359e-02  -1.7426434855275414e-02  -1.4030013537920829e-02  -1.0550839641239065e-02  -7.1531245291222567e-03  -3.9559743393030988e-03  -1.0461712324510333e-03  1.5142665073628078e-03  3.6834963626527699e-03  5.4357602702299265e-03  6.7586606781698619e-03  7.6412392218522677e-03  8.0482058899845124e-03  7.7911369997841423e-03  6.4014642517923733e-03  4.4219246162284205e-03  </DataArray> 
</PointData> 
</Piece>
</UnstructuredGrid>
</VTKFile>