<?xml version="1.0"?>
<VTKFile type="UnstructuredGrid"  version="0.1"  >
<UnstructuredGrid>
<Piece  NumberOfPoints="21" NumberOfCells="20">
<Points>
<DataArray  type="Float64"  NumberOfComponents="3"  format="ascii">0 0 0  0.05 0 0  0.1 0 0  0.15 0 0  0.2 0 0  0.25 0 0  0.3 0 0  0.35 0 0  0.4 0 0  0.45 0 0  0.5 0 0  0.55 0 0  0.6 0 0  0.65 0 0  0.7 0 0  0.75 0 0  0.8 0 0  0.85 0 0  0.9 0 0  0.95 0 0  1 0 0  </DataArray>
</Points>
<Cells>
<DataArray  type="UInt32"  Name="connectivity"  format="ascii">0 1  1 2  2 3  3 4  4 5  5 6  6 7  7 8  8 9  9 10  10 11  11 12  12 13  13 14  14 15  15 16  16 17  17 18  18 19  19 20  </DataArray>
<DataArray  type="UInt32"  Name="offsets"  format="ascii">2 4 6 8 10 12 14 16 18 20 22 24 26 28 30 32 34 36 38 40 </DataArray>
<DataArray  type="UInt8"  Name="types"  format="ascii">3 3 3 3 3 3 3 3 3 3 3 3 3 3 3 3 3 3 3 3 </DataArray>
</Cells>
<PointData  Scalars="u"> 
<DataArray  type="Float64"  Name="u"  format="ascii">4.1666666666398125e-06  8.9602188861718311e-03  2.5523232247572587e-02  4.4963886938624700e-02  6.4203132981214717e-02  8.1933547041124932e-02  9.7515258356382445e-02  1.1065286387659361e-01  1.2120667218440952e-01  1.2909262676974026e-01  1.3423152485087994e-01  1.3652068709829046e-01  1.3582180782987877e-01  1.3196165806255830e-01  1.2474152499215520e-01  1.1395004727568574e-01  9.9371895550650083e-02  8.0793384102541818e-02  5.7995524256782359e-02  3.0873518939229169e-02  4.1666666666623606e-06  </DataArray> 
</PointData> 
</Piece>
</UnstructuredGrid>
</VTKFile>