<?xml version="1.0"?>
<VTKFile type="UnstructuredGrid"  version="0.1"  >
<UnstructuredGrid>
<Piece  NumberOfPoints="441" NumberOfCells="800">
<Points>
<DataArray  type="Float64"  NumberOfComponents="3"  format="ascii">0 0 0  0.05 0 0  0.1 0 0  0.15 0 0  0.2 0 0  0.25 0 0  0.3 0 0  0.35 0 0  0.4 0 0  0.45 0 0  0.5 0 0  0.55 0 0  0.6 0 0  0.65 0 0  0.7 0 0  0.75 0 0  0.8 0 0  0.85 0 0  0.9 0 0  0.95 0 0  1 0 0  0 0.05 0  0.05 0.05 0  0.1 0.05 0  0.15 0.05 0  0.2 0.05 0  0.25 0.05 0  0.3 0.05 0  0.35 0.05 0  0.4 0.05 0  0.45 0.05 0  0.5 0.05 0  0.55 0.05 0  0.6 0.05 0  0.65 0.05 0  0.7 0.05 0  0.75 0.05 0  0.8 0.05 0  0.85 0.05 0  0.9 0.05 0  0.95 0.05 0  1 0.05 0  0 0.1 0  0.05 0.1 0  0.1 0.1 0  0.15 0.1 0  0.2 0.1 0  0.25 0.1 0  0.3 0.1 0  0.35 0.1 0  0.4 0.1 0  0.45 0.1 0  0.5 0.1 0  0.55 0.1 0  0.6 0.1 0  0.65 0.1 0  0.7 0.1 0  0.75 0.1 0  0.8 0.1 0  0.85 0.1 0  0.9 0.1 0  0.95 0.1 0  1 0.1 0  0 0.15 0  0.05 0.15 0  0.1 0.15 0  0.15 0.15 0  0.2 0.15 0  0.25 0.15 0  0.3 0.15 0  0.35 0.15 0  0.4 0.15 0  0.45 0.15 0  0.5 0.15 0  0.55 0.15 0  0.6 0.15 0  0.65 0.15 0  0.7 0.15 0  0.75 0.15 0  0.8 0.15 0  0.85 0.15 0  0.9 0.15 0  0.95 0.15 0  1 0.15 0  0 0.2 0  0.05 0.2 0  0.1 0.2 0  0.15 0.2 0  0.2 0.2 0  0.25 0.2 0  0.3 0.2 0  0.35 0.2 0  0.4 0.2 0  0.45 0.2 0  0.5 0.2 0  0.55 0.2 0  0.6 0.2 0  0.65 0.2 0  0.7 0.2 0  0.75 0.2 0  0.8 0.2 0  0.85 0.2 0  0.9 0.2 0  0.95 0.2 0  1 0.2 0  0 0.25 0  0.05 0.25 0  0.1 0.25 0  0.15 0.25 0  0.2 0.25 0  0.25 0.25 0  0.3 0.25 0  0.35 0.25 0  0.4 0.25 0  0.45 0.25 0  0.5 0.25 0  0.55 0.25 0  0.6 0.25 0  0.65 0.25 0  0.7 0.25 0  0.75 0.25 0  0.8 0.25 0  0.85 0.25 0  0.9 0.25 0  0.95 0.25 0  1 0.25 0  0 0.3 0  0.05 0.3 0  0.1 0.3 0  0.15 0.3 0  0.2 0.3 0  0.25 0.3 0  0.3 0.3 0  0.35 0.3 0  0.4 0.3 0  0.45 0.3 0  0.5 0.3 0  0.55 0.3 0  0.6 0.3 0  0.65 0.3 0  0.7 0.3 0  0.75 0.3 0  0.8 0.3 0  0.85 0.3 0  0.9 0.3 0  0.95 0.3 0  1 0.3 0  0 0.35 0  0.05 0.35 0  0.1 0.35 0  0.15 0.35 0  0.2 0.35 0  0.25 0.35 0  0.3 0.35 0  0.35 0.35 0  0.4 0.35 0  0.45 0.35 0  0.5 0.35 0  0.55 0.35 0  0.6 0.35 0  0.65 0.35 0  0.7 0.35 0  0.75 0.35 0  0.8 0.35 0  0.85 0.35 0  0.9 0.35 0  0.95 0.35 0  1 0.35 0  0 0.4 0  0.05 0.4 0  0.1 0.4 0  0.15 0.4 0  0.2 0.4 0  0.25 0.4 0  0.3 0.4 0  0.35 0.4 0  0.4 0.4 0  0.45 0.4 0  0.5 0.4 0  0.55 0.4 0  0.6 0.4 0  0.65 0.4 0  0.7 0.4 0  0.75 0.4 0  0.8 0.4 0  0.85 0.4 0  0.9 0.4 0  0.95 0.4 0  1 0.4 0  0 0.45 0  0.05 0.45 0  0.1 0.45 0  0.15 0.45 0  0.2 0.45 0  0.25 0.45 0  0.3 0.45 0  0.35 0.45 0  0.4 0.45 0  0.45 0.45 0  0.5 0.45 0  0.55 0.45 0  0.6 0.45 0  0.65 0.45 0  0.7 0.45 0  0.75 0.45 0  0.8 0.45 0  0.85 0.45 0  0.9 0.45 0  0.95 0.45 0  1 0.45 0  0 0.5 0  0.05 0.5 0  0.1 0.5 0  0.15 0.5 0  0.2 0.5 0  0.25 0.5 0  0.3 0.5 0  0.35 0.5 0  0.4 0.5 0  0.45 0.5 0  0.5 0.5 0  0.55 0.5 0  0.6 0.5 0  0.65 0.5 0  0.7 0.5 0  0.75 0.5 0  0.8 0.5 0  0.85 0.5 0  0.9 0.5 0  0.95 0.5 0  1 0.5 0  0 0.55 0  0.05 0.55 0  0.1 0.55 0  0.15 0.55 0  0.2 0.55 0  0.25 0.55 0  0.3 0.55 0  0.35 0.55 0  0.4 0.55 0  0.45 0.55 0  0.5 0.55 0  0.55 0.55 0  0.6 0.55 0  0.65 0.55 0  0.7 0.55 0  0.75 0.55 0  0.8 0.55 0  0.85 0.55 0  0.9 0.55 0  0.95 0.55 0  1 0.55 0  0 0.6 0  0.05 0.6 0  0.1 0.6 0  0.15 0.6 0  0.2 0.6 0  0.25 0.6 0  0.3 0.6 0  0.35 0.6 0  0.4 0.6 0  0.45 0.6 0  0.5 0.6 0  0.55 0.6 0  0.6 0.6 0  0.65 0.6 0  0.7 0.6 0  0.75 0.6 0  0.8 0.6 0  0.85 0.6 0  0.9 0.6 0  0.95 0.6 0  1 0.6 0  0 0.65 0  0.05 0.65 0  0.1 0.65 0  0.15 0.65 0  0.2 0.65 0  0.25 0.65 0  0.3 0.65 0  0.35 0.65 0  0.4 0.65 0  0.45 0.65 0  0.5 0.65 0  0.55 0.65 0  0.6 0.65 0  0.65 0.65 0  0.7 0.65 0  0.75 0.65 0  0.8 0.65 0  0.85 0.65 0  0.9 0.65 0  0.95 0.65 0  1 0.65 0  0 0.7 0  0.05 0.7 0  0.1 0.7 0  0.15 0.7 0  0.2 0.7 0  0.25 0.7 0  0.3 0.7 0  0.35 0.7 0  0.4 0.7 0  0.45 0.7 0  0.5 0.7 0  0.55 0.7 0  0.6 0.7 0  0.65 0.7 0  0.7 0.7 0  0.75 0.7 0  0.8 0.7 0  0.85 0.7 0  0.9 0.7 0  0.95 0.7 0  1 0.7 0  0 0.75 0  0.05 0.75 0  0.1 0.75 0  0.15 0.75 0  0.2 0.75 0  0.25 0.75 0  0.3 0.75 0  0.35 0.75 0  0.4 0.75 0  0.45 0.75 0  0.5 0.75 0  0.55 0.75 0  0.6 0.75 0  0.65 0.75 0  0.7 0.75 0  0.75 0.75 0  0.8 0.75 0  0.85 0.75 0  0.9 0.75 0  0.95 0.75 0  1 0.75 0  0 0.8 0  0.05 0.8 0  0.1 0.8 0  0.15 0.8 0  0.2 0.8 0  0.25 0.8 0  0.3 0.8 0  0.35 0.8 0  0.4 0.8 0  0.45 0.8 0  0.5 0.8 0  0.55 0.8 0  0.6 0.8 0  0.65 0.8 0  0.7 0.8 0  0.75 0.8 0  0.8 0.8 0  0.85 0.8 0  0.9 0.8 0  0.95 0.8 0  1 0.8 0  0 0.85 0  0.05 0.85 0  0.1 0.85 0  0.15 0.85 0  0.2 0.85 0  0.25 0.85 0  0.3 0.85 0  0.35 0.85 0  0.4 0.85 0  0.45 0.85 0  0.5 0.85 0  0.55 0.85 0  0.6 0.85 0  0.65 0.85 0  0.7 0.85 0  0.75 0.85 0  0.8 0.85 0  0.85 0.85 0  0.9 0.85 0  0.95 0.85 0  1 0.85 0  0 0.9 0  0.05 0.9 0  0.1 0.9 0  0.15 0.9 0  0.2 0.9 0  0.25 0.9 0  0.3 0.9 0  0.35 0.9 0  0.4 0.9 0  0.45 0.9 0  0.5 0.9 0  0.55 0.9 0  0.6 0.9 0  0.65 0.9 0  0.7 0.9 0  0.75 0.9 0  0.8 0.9 0  0.85 0.9 0  0.9 0.9 0  0.95 0.9 0  1 0.9 0  0 0.95 0  0.05 0.95 0  0.1 0.95 0  0.15 0.95 0  0.2 0.95 0  0.25 0.95 0  0.3 0.95 0  0.35 0.95 0  0.4 0.95 0  0.45 0.95 0  0.5 0.95 0  0.55 0.95 0  0.6 0.95 0  0.65 0.95 0  0.7 0.95 0  0.75 0.95 0  0.8 0.95 0  0.85 0.95 0  0.9 0.95 0  0.95 0.95 0  1 0.95 0  0 1 0  0.05 1 0  0.1 1 0  0.15 1 0  0.2 1 0  0.25 1 0  0.3 1 0  0.35 1 0  0.4 1 0  0.45 1 0  0.5 1 0  0.55 1 0  0.6 1 0  0.65 1 0  0.7 1 0  0.75 1 0  0.8 1 0  0.85 1 0  0.9 1 0  0.95 1 0  1 1 0  </DataArray>
</Points>
<Cells>
[...]
<PointData  Scalars="u"> 
<DataArray  type="Float64"  Name="u"  format="ascii">-1.1517564594675321e+01  -1.1297886179349456e+01  -1.3631992366380695e+01  -1.3711698258050136e+01  -1.2274538069459288e+01  -1.0237807116857078e+00  4.0935924276241060e+00  6.2719644673325252e+00  -7.2306643774350698e-01  1.2465002268103305e+00  -8.0415008761517426e-01  -1.2467169051349747e+00  -2.3539578980702007e+00  -6.0972053549969694e+00  -7.4001059047742492e+00  4.1755990062906351e-01  4.3453116509846295e+00  3.0366678181696627e+00  3.5346456497762162e+00  1.4532410966095557e-01  -1.1713530819948925e+00  -1.1152524904680082e+01  -1.1798890191701412e+01  -1.3885062171694440e+01  -1.2895007592326262e+01  -9.5841119520809848e+00  -2.8440042307884057e+00  3.6629877014362489e+00  4.0365508757932957e+00  3.2085495097263128e+00  1.6595213240658961e+00  -8.4215083200059049e-01  -2.3899842474391160e+00  -4.2716499727200814e+00  -6.9753952630123131e+00  -6.3915723062868430e+00  -1.2340499875641682e+00  2.8947017098645325e+00  5.4423738495138192e+00  3.7436232643897687e+00  8.5789275380388474e-01  -4.4684380727458234e-01  -1.0552132165820549e+01  -1.1162450404000602e+01  -1.2177021604064070e+01  -1.2243522815149198e+01  -8.6290067397905315e+00  -3.0446568952999304e+00  1.3784105473838166e+00  3.9546939343503245e+00  5.4134872522373616e+00  9.1935393882682082e-01  -7.9484001540876703e-01  -2.8485496971905437e+00  -5.5866623874251227e+00  -7.0993727515733269e+00  -4.4498945553757547e+00  -5.8725823082243001e-01  3.8620857935566120e+00  4.7336261024276611e+00  2.1208730771415758e+00  1.0793395424847092e+00  -6.2660566494104375e-01  -9.4785545071074111e+00  -1.0182663589815052e+01  -1.1501918383433280e+01  -1.0293592864047300e+01  -6.4669675927193948e+00  -2.9222182801137899e+00  7.8334031942589299e-01  4.3087222906450631e+00  3.2113084395526905e+00  1.1438631225062661e+00  -8.1350950039904446e-01  -3.3102967814151820e+00  -5.4701204275882702e+00  -6.4473930710840088e+00  -4.0792568549398132e+00  -7.1632231879579056e-01  2.6072876644659577e+00  3.9790553936391517e+00  3.8080847748554048e+00  9.1147209845165955e-01  -4.6064528047011138e-01  -8.2775502101262113e+00  -9.1544074988128159e+00  -9.9800478041906846e+00  -8.4122697092102090e+00  -5.6539286343862845e+00  -3.0200919738773329e+00  4.8789061661934224e-02  2.2642259357837857e+00  3.3599333479076869e+00  1.8798163809737092e+00  -1.0654695971756385e+00  -3.4104180922176632e+00  -5.3515939873280249e+00  -5.8558856761057045e+00  -3.7475141102885021e+00  -7.6488496516922877e-01  2.2146925982707191e+00  3.9072523903551075e+00  3.0168915623013373e+00  8.8692419090593944e-01  -2.1242752091852957e-01  -7.0192215429940292e+00  -7.8874654841902938e+00  -8.3895950839859701e+00  -7.0031560814697320e+00  -4.9053462048702805e+00  -2.7504712715597894e+00  -5.2892612931068683e-01  1.5106476580097010e+00  2.5550415450123984e+00  1.1754641624113591e+00  -1.1404544703460342e+00  -3.3255922820750232e+00  -5.0056498139041050e+00  -5.1563638441042121e+00  -3.1170697490484169e+00  -6.5758357984718419e-01  1.8299502108140426e+00  3.2971228265298578e+00  2.7004914806835703e+00  1.0083101635403509e+00  -1.5470498962367030e-01  -5.7961565420466536e+00  -6.6230790840494276e+00  -7.0107715924511416e+00  -5.8937128394785470e+00  -4.2670013172856747e+00  -2.6022665025021534e+00  -9.0287266806012356e-01  7.7778367770803958e-01  1.6002713472267340e+00  8.4430006507097688e-01  -1.1962576386416621e+00  -3.1878910391490995e+00  -4.5357164944080104e+00  -4.5094613103588177e+00  -2.7995169396717974e+00  -7.1273759276809867e-01  1.5011123119310346e+00  2.8000184526645642e+00  2.3959533783467126e+00  8.9503400166649627e-01  -7.7393439673884040e-02  -4.7549420886748930e+00  -5.5186427715710913e+00  -5.8791556154486546e+00  -5.0209792986790749e+00  -3.7687730904206846e+00  -2.4616275493991724e+00  -1.1175667134794451e+00  2.0062917441680286e-01  9.1828755643024496e-01  3.6056482807598456e-01  -1.3227966045400887e+00  -2.9777994178098552e+00  -4.0344420737080853e+00  -3.9395128930584660e+00  -2.4757772769904105e+00  -6.6908364448430546e-01  1.2124287280926362e+00  2.3374698320230207e+00  2.0436313154609551e+00  8.0580572958026397e-01  1.8721822188487502e-02  -3.9395852181481148e+00  -4.6183013441893070e+00  -4.9754224074219895e+00  -4.3393187649391853e+00  -3.3738535297678043e+00  -2.3324055412846048e+00  -1.2613598910444779e+00  -2.2603820666978636e-01  3.5285965050041679e-01  -6.4402067361699955e-02  -1.3932926467985138e+00  -2.7349320593640796e+00  -3.5580165688013663e+00  -3.4320473132669429e+00  -2.1875339458315590e+00  -6.5528711132337392e-01  9.4320915636228819e-01  1.9221571362645260e+00  1.7156493248127413e+00  7.0934805833480230e-01  6.7799839362127093e-02  -3.3335402259852249e+00  -3.9154361907133763e+00  -4.2651980139624914e+00  -3.8048401218270977e+00  -3.0569070576278654e+00  -2.2185957166101580e+00  -1.3547576847946829e+00  -5.3647147773290782e-01  -8.3746790960222958e-02  -3.9903043887843093e-01  -1.4396707323376094e+00  -2.4945753853074297e+00  -3.1200024366460171e+00  -2.9782615643612558e+00  -1.9293925018072005e+00  -6.3860830458759232e-01  7.1010260530150360e-01  1.5479803886582664e+00  1.4102138640662605e+00  6.0816044372527800e-01  1.0557845509582034e-01  -2.8984368447444702e+00  -3.3810177415401510e+00  -3.7094659175656952e+00  -3.3806791618261105e+00  -2.7986810106820372e+00  -2.1198705981296166e+00  -1.4178012419080110e+00  -7.6677720746552447e-01  -4.1484401484910910e-01  -6.5575288325048298e-01  -1.4549004585765364e+00  -2.2612609225026898e+00  -2.7239016367018620e+00  -2.5763737689055990e+00  -1.7015024382334079e+00  -6.2449789754881968e-01  5.0216470325476126e-01  1.2136404198684281e+00  1.1332333475494949e+00  5.1101675815556546e-01  1.3035176592012582e-01  -2.5920794760942161e+00  -2.9795498951520289e+00  -3.2726825902818999e+00  -3.0389904852265786e+00  -2.5854241379073630e+00  -2.0354422927511808e+00  -1.4628872881121484e+00  -9.4101672411858417e-01  -6.6453357579584760e-01  -8.4427826891692970e-01  -1.4441772766738930e+00  -2.0432920430376909e+00  -2.3724937971383504e+00  -2.2246145315088683e+00  -1.5019723857792318e+00  -6.1165515983238672e-01  3.2020516404723742e-01  9.1915401370890482e-01  8.8546080668781924e-01  4.1997760375958237e-01  1.4573006279146394e-01  -2.3772423762863513e+00  -2.6780693612576365e+00  -2.9261930306941784e+00  -2.7598649094714403e+00  -2.4074852425116156e+00  -1.9639918332208575e+00  -1.4975246438851635e+00  -1.0766364329119880e+00  -8.5438403640699134e-01  -9.8003209914913025e-01  -1.4158366447475375e+00  -1.8445264585387517e+00  -2.0651878125877863e+00  -1.9202830918836629e+00  -1.3291499267757163e+00  -6.0029206331768925e-01  1.6229510639295786e-01  6.6239998444986747e-01  6.6742356124109370e-01  3.3710104512404798e-01  1.5457837819054099e-01  -2.2250141394500553e+00  -2.4499232008330067e+00  -2.6486485082587778e+00  -2.5297066359213836e+00  -2.2583559333870964e+00  -1.9041735577687031e+00  -1.5259339591913497e+00  -1.1849720174834806e+00  -1.0006089766412325e+00  -1.0769901286220191e+00  -1.3774321229548065e+00  -1.6674541399686000e+00  -1.8007714927721572e+00  -1.6606941169278815e+00  -1.1814654607114687e+00  -5.9038950059479667e-01  2.7159765152743785e-02  4.4191092463361076e-01  4.7884144900355297e-01  2.6340318865022938e-01  1.5882404414706347e-01  -2.1149104589283469e+00  -2.2754534151789625e+00  -2.4250889038583434e+00  -2.3396165520117096e+00  -2.1337882698646427e+00  -1.8547453501454119e+00  -1.5502002360965097e+00  -1.2730177115436105e+00  -1.1146816029800064e+00  -1.1463774085038638e+00  -1.3354226897296879e+00  -1.5136462527715739e+00  -1.5773973502190159e+00  -1.4428792819743581e+00  -1.0572806947356885e+00  -5.8196261162535357e-01  -8.6634788425407366e-02  2.5579750124811929e-01  3.1886543740773443e-01  1.9948344910842153e-01  1.6006217550103602e-01  -2.0335012845633598e+00  -2.1411738186791025e+00  -2.2455688535892908e+00  -2.1839953309474858e+00  -2.0310896491672819e+00  -1.8146525969129608e+00  -1.5711482075347676e+00  -1.3448013304122053e+00  -1.2041356956038602e+00  -1.1963067391645521e+00  -1.2946307144226086e+00  -1.3838371575900856e+00  -1.3929454262386978e+00  -1.2639781593654107e+00  -9.5510934429684702e-01  -5.7504213916179558e-01  -1.8044941838381975e-01  1.0217875303790684e-01  1.8642420129237106e-01  1.4560516349515909e-01  1.5948805350151557e-01  -1.9726061177361414e+00  -2.0383978430295802e+00  -2.1037882720742833e+00  -2.0594515228678341e+00  -1.9485989528060976e+00  -1.7830496458173684e+00  -1.5889190951421841e+00  -1.4024626600243781e+00  -1.2736417987470485e+00  -1.2322330422969900e+00  -1.2583348707567150e+00  -1.2781689130521363e+00  -1.2453101085062346e+00  -1.1214003550186225e+00  -8.7361509950308935e-01  -5.6964275321153768e-01  -2.5553763673096780e-01  -2.0771085561565268e-02  8.0320005928043101e-02  1.0181397582080386e-01  1.5804953920365553e-01  -1.9275825903821175e+00  -1.9618721687601199e+00  -1.9959466040170548e+00  -1.9640102471436942e+00  -1.8853201245088649e+00  -1.7592937498409005e+00  -1.6033393502475999e+00  -1.4470172134249837e+00  -1.3259201660727431e+00  -1.2575739627827303e+00  -1.2285624596268352e+00  -1.1964137470904039e+00  -1.1325896608174888e+00  -1.0129490765961955e+00  -8.1167824049954063e-01  -5.6578406292246985e-01  -3.1297823054694579e-01  -1.1467776142773134e-01  -5.9981353309505197e-04  6.8042326813349915e-02  1.5647829215876988e-01  -1.8961254456633225e+00  -1.9086067328792320e+00  -1.9198169251940318e+00  -1.8965583022086425e+00  -1.8406654595671805e+00  -1.7429128774391434e+00  -1.6141313497449767e+00  -1.4788829755810631e+00  -1.3624927413461532e+00  -1.2743638770924732e+00  -1.2064569831919754e+00  -1.1381441286677536e+00  -1.0531742353487974e+00  -9.3686962261363471e-01  -7.6839950931137224e-01  -5.6345854961046538e-01  -3.5364179468949369e-01  -1.8091892093241865e-01  -5.7340488061443227e-02  4.4172964176487757e-02  1.5531879466418944e-01  -1.8773220672339177e+00  -1.8767945156494887e+00  -1.8743198222054316e+00  -1.8565941583901915e+00  -1.8143435289892713e+00  -1.7336140749011146e+00  -1.6210715520238750e+00  -1.4981925919691257e+00  -1.3840658998127433e+00  -1.2836024175789122e+00  -1.1925106047299596e+00  -1.1029290512152596e+00  -1.0059764952717685e+00  -8.9200586025908513e-01  -7.4320044059309243e-01  -5.6274221102505029e-01  -3.7824032786007472e-01  -2.2043467829923805e-01  -9.0572885479114143e-02  3.0086895130112656e-02  1.5495650414392637e-01  -1.8679246035772255e+00  -1.8662411073973484e+00  -1.8588494568286551e+00  -1.8435039128516562e+00  -1.8060139799654600e+00  -1.7311025431774387e+00  -1.6239234054927711e+00  -1.5048775833096277e+00  -1.3910838236156875e+00  -1.2861351361471285e+00  -1.1872152437437311e+00  -1.0906260517389372e+00  -9.9014062813925152e-01  -8.7723397167843820e-01  -7.3549730407295766e-01  -5.6339997760514737e-01  -3.8695002319862515e-01  -2.3371195901419667e-01  -1.0121079564840010e-01  2.5714640605151367e-02  1.5550298127719916e-01  </DataArray> 
</PointData> 
</Piece>
</UnstructuredGrid>
</VTKFile>