<?xml version="1.0"?>
<VTKFile type="UnstructuredGrid"  version="0.1"  >
<UnstructuredGrid>
<Piece  NumberOfPoints="441" NumberOfCells="800">
<Points>
<DataArray  type="Float64"  NumberOfComponents="3"  format="ascii">0 0 0  0.05 0 0  0.1 0 0  0.15 0 0  0.2 0 0  0.25 0 0  0.3 0 0  0.35 0 0  0.4 0 0  0.45 0 0  0.5 0 0  0.55 0 0  0.6 0 0  0.65 0 0  0.7 0 0  0.75 0 0  0.8 0 0  0.85 0 0  0.9 0 0  0.95 0 0  1 0 0  0 0.05 0  0.05 0.05 0  0.1 0.05 0  0.15 0.05 0  0.2 0.05 0  0.25 0.05 0  0.3 0.05 0  0.35 0.05 0  0.4 0.05 0  0.45 0.05 0  0.5 0.05 0  0.55 0.05 0  0.6 0.05 0  0.65 0.05 0  0.7 0.05 0  0.75 0.05 0  0.8 0.05 0  0.85 0.05 0  0.9 0.05 0  0.95 0.05 0  1 0.05 0  0 0.1 0  0.05 0.1 0  0.1 0.1 0  0.15 0.1 0  0.2 0.1 0  0.25 0.1 0  0.3 0.1 0  0.35 0.1 0  0.4 0.1 0  0.45 0.1 0  0.5 0.1 0  0.55 0.1 0  0.6 0.1 0  0.65 0.1 0  0.7 0.1 0  0.75 0.1 0  0.8 0.1 0  0.85 0.1 0  0.9 0.1 0  0.95 0.1 0  1 0.1 0  0 0.15 0  0.05 0.15 0  0.1 0.15 0  0.15 0.15 0  0.2 0.15 0  0.25 0.15 0  0.3 0.15 0  0.35 0.15 0  0.4 0.15 0  0.45 0.15 0  0.5 0.15 0  0.55 0.15 0  0.6 0.15 0  0.65 0.15 0  0.7 0.15 0  0.75 0.15 0  0.8 0.15 0  0.85 0.15 0  0.9 0.15 0  0.95 0.15 0  1 0.15 0  0 0.2 0  0.05 0.2 0  0.1 0.2 0  0.15 0.2 0  0.2 0.2 0  0.25 0.2 0  0.3 0.2 0  0.35 0.2 0  0.4 0.2 0  0.45 0.2 0  0.5 0.2 0  0.55 0.2 0  0.6 0.2 0  0.65 0.2 0  0.7 0.2 0  0.75 0.2 0  0.8 0.2 0  0.85 0.2 0  0.9 0.2 0  0.95 0.2 0  1 0.2 0  0 0.25 0  0.05 0.25 0  0.1 0.25 0  0.15 0.25 0  0.2 0.25 0  0.25 0.25 0  0.3 0.25 0  0.35 0.25 0  0.4 0.25 0  0.45 0.25 0  0.5 0.25 0  0.55 0.25 0  0.6 0.25 0  0.65 0.25 0  0.7 0.25 0  0.75 0.25 0  0.8 0.25 0  0.85 0.25 0  0.9 0.25 0  0.95 0.25 0  1 0.25 0  0 0.3 0  0.05 0.3 0  0.1 0.3 0  0.15 0.3 0  0.2 0.3 0  0.25 0.3 0  0.3 0.3 0  0.35 0.3 0  0.4 0.3 0  0.45 0.3 0  0.5 0.3 0  0.55 0.3 0  0.6 0.3 0  0.65 0.3 0  0.7 0.3 0  0.75 0.3 0  0.8 0.3 0  0.85 0.3 0  0.9 0.3 0  0.95 0.3 0  1 0.3 0  0 0.35 0  0.05 0.35 0  0.1 0.35 0  0.15 0.35 0  0.2 0.35 0  0.25 0.35 0  0.3 0.35 0  0.35 0.35 0  0.4 0.35 0  0.45 0.35 0  0.5 0.35 0  0.55 0.35 0  0.6 0.35 0  0.65 0.35 0  0.7 0.35 0  0.75 0.35 0  0.8 0.35 0  0.85 0.35 0  0.9 0.35 0  0.95 0.35 0  1 0.35 0  0 0.4 0  0.05 0.4 0  0.1 0.4 0  0.15 0.4 0  0.2 0.4 0  0.25 0.4 0  0.3 0.4 0  0.35 0.4 0  0.4 0.4 0  0.45 0.4 0  0.5 0.4 0  0.55 0.4 0  0.6 0.4 0  0.65 0.4 0  0.7 0.4 0  0.75 0.4 0  0.8 0.4 0  0.85 0.4 0  0.9 0.4 0  0.95 0.4 0  1 0.4 0  0 0.45 0  0.05 0.45 0  0.1 0.45 0  0.15 0.45 0  0.2 0.45 0  0.25 0.45 0  0.3 0.45 0  0.35 0.45 0  0.4 0.45 0  0.45 0.45 0  0.5 0.45 0  0.55 0.45 0  0.6 0.45 0  0.65 0.45 0  0.7 0.45 0  0.75 0.45 0  0.8 0.45 0  0.85 0.45 0  0.9 0.45 0  0.95 0.45 0  1 0.45 0  0 0.5 0  0.05 0.5 0  0.1 0.5 0  0.15 0.5 0  0.2 0.5 0  0.25 0.5 0  0.3 0.5 0  0.35 0.5 0  0.4 0.5 0  0.45 0.5 0  0.5 0.5 0  0.55 0.5 0  0.6 0.5 0  0.65 0.5 0  0.7 0.5 0  0.75 0.5 0  0.8 0.5 0  0.85 0.5 0  0.9 0.5 0  0.95 0.5 0  1 0.5 0  0 0.55 0  0.05 0.55 0  0.1 0.55 0  0.15 0.55 0  0.2 0.55 0  0.25 0.55 0  0.3 0.55 0  0.35 0.55 0  0.4 0.55 0  0.45 0.55 0  0.5 0.55 0  0.55 0.55 0  0.6 0.55 0  0.65 0.55 0  0.7 0.55 0  0.75 0.55 0  0.8 0.55 0  0.85 0.55 0  0.9 0.55 0  0.95 0.55 0  1 0.55 0  0 0.6 0  0.05 0.6 0  0.1 0.6 0  0.15 0.6 0  0.2 0.6 0  0.25 0.6 0  0.3 0.6 0  0.35 0.6 0  0.4 0.6 0  0.45 0.6 0  0.5 0.6 0  0.55 0.6 0  0.6 0.6 0  0.65 0.6 0  0.7 0.6 0  0.75 0.6 0  0.8 0.6 0  0.85 0.6 0  0.9 0.6 0  0.95 0.6 0  1 0.6 0  0 0.65 0  0.05 0.65 0  0.1 0.65 0  0.15 0.65 0  0.2 0.65 0  0.25 0.65 0  0.3 0.65 0  0.35 0.65 0  0.4 0.65 0  0.45 0.65 0  0.5 0.65 0  0.55 0.65 0  0.6 0.65 0  0.65 0.65 0  0.7 0.65 0  0.75 0.65 0  0.8 0.65 0  0.85 0.65 0  0.9 0.65 0  0.95 0.65 0  1 0.65 0  0 0.7 0  0.05 0.7 0  0.1 0.7 0  0.15 0.7 0  0.2 0.7 0  0.25 0.7 0  0.3 0.7 0  0.35 0.7 0  0.4 0.7 0  0.45 0.7 0  0.5 0.7 0  0.55 0.7 0  0.6 0.7 0  0.65 0.7 0  0.7 0.7 0  0.75 0.7 0  0.8 0.7 0  0.85 0.7 0  0.9 0.7 0  0.95 0.7 0  1 0.7 0  0 0.75 0  0.05 0.75 0  0.1 0.75 0  0.15 0.75 0  0.2 0.75 0  0.25 0.75 0  0.3 0.75 0  0.35 0.75 0  0.4 0.75 0  0.45 0.75 0  0.5 0.75 0  0.55 0.75 0  0.6 0.75 0  0.65 0.75 0  0.7 0.75 0  0.75 0.75 0  0.8 0.75 0  0.85 0.75 0  0.9 0.75 0  0.95 0.75 0  1 0.75 0  0 0.8 0  0.05 0.8 0  0.1 0.8 0  0.15 0.8 0  0.2 0.8 0  0.25 0.8 0  0.3 0.8 0  0.35 0.8 0  0.4 0.8 0  0.45 0.8 0  0.5 0.8 0  0.55 0.8 0  0.6 0.8 0  0.65 0.8 0  0.7 0.8 0  0.75 0.8 0  0.8 0.8 0  0.85 0.8 0  0.9 0.8 0  0.95 0.8 0  1 0.8 0  0 0.85 0  0.05 0.85 0  0.1 0.85 0  0.15 0.85 0  0.2 0.85 0  0.25 0.85 0  0.3 0.85 0  0.35 0.85 0  0.4 0.85 0  0.45 0.85 0  0.5 0.85 0  0.55 0.85 0  0.6 0.85 0  0.65 0.85 0  0.7 0.85 0  0.75 0.85 0  0.8 0.85 0  0.85 0.85 0  0.9 0.85 0  0.95 0.85 0  1 0.85 0  0 0.9 0  0.05 0.9 0  0.1 0.9 0  0.15 0.9 0  0.2 0.9 0  0.25 0.9 0  0.3 0.9 0  0.35 0.9 0  0.4 0.9 0  0.45 0.9 0  0.5 0.9 0  0.55 0.9 0  0.6 0.9 0  0.65 0.9 0  0.7 0.9 0  0.75 0.9 0  0.8 0.9 0  0.85 0.9 0  0.9 0.9 0  0.95 0.9 0  1 0.9 0  0 0.95 0  0.05 0.95 0  0.1 0.95 0  0.15 0.95 0  0.2 0.95 0  0.25 0.95 0  0.3 0.95 0  0.35 0.95 0  0.4 0.95 0  0.45 0.95 0  0.5 0.95 0  0.55 0.95 0  0.6 0.95 0  0.65 0.95 0  0.7 0.95 0  0.75 0.95 0  0.8 0.95 0  0.85 0.95 0  0.9 0.95 0  0.95 0.95 0  1 0.95 0  0 1 0  0.05 1 0  0.1 1 0  0.15 1 0  0.2 1 0  0.25 1 0  0.3 1 0  0.35 1 0  0.4 1 0  0.45 1 0  0.5 1 0  0.55 1 0  0.6 1 0  0.65 1 0  0.7 1 0  0.75 1 0  0.8 1 0  0.85 1 0  0.9 1 0  0.95 1 0  1 1 0  </DataArray>
</Points>
<Cells>
[...]
<PointData  Vectors="u"> 
<DataArray  type="Float64"  Name="u"  NumberOfComponents="3" format="ascii">0.0000000000000000e+00 0.0000000000000000e+00 0.0000000000000000e+00  0.0000000000000000e+00 0.0000000000000000e+00 0.0000000000000000e+00  0.0000000000000000e+00 0.0000000000000000e+00 0.0000000000000000e+00  0.0000000000000000e+00 0.0000000000000000e+00 0.0000000000000000e+00  0.0000000000000000e+00 0.0000000000000000e+00 0.0000000000000000e+00  0.0000000000000000e+00 0.0000000000000000e+00 0.0000000000000000e+00  0.0000000000000000e+00 0.0000000000000000e+00 0.0000000000000000e+00  0.0000000000000000e+00 0.0000000000000000e+00 0.0000000000000000e+00  0.0000000000000000e+00 0.0000000000000000e+00 0.0000000000000000e+00  0.0000000000000000e+00 0.0000000000000000e+00 0.0000000000000000e+00  0.0000000000000000e+00 0.0000000000000000e+00 0.0000000000000000e+00  0.0000000000000000e+00 0.0000000000000000e+00 0.0000000000000000e+00  0.0000000000000000e+00 0.0000000000000000e+00 0.0000000000000000e+00  0.0000000000000000e+00 0.0000000000000000e+00 0.0000000000000000e+00  0.0000000000000000e+00 0.0000000000000000e+00 0.0000000000000000e+00  0.0000000000000000e+00 0.0000000000000000e+00 0.0000000000000000e+00  0.0000000000000000e+00 0.0000000000000000e+00 0.0000000000000000e+00  0.0000000000000000e+00 0.0000000000000000e+00 0.0000000000000000e+00  0.0000000000000000e+00 0.0000000000000000e+00 0.0000000000000000e+00  0.0000000000000000e+00 0.0000000000000000e+00 0.0000000000000000e+00  0.0000000000000000e+00 0.0000000000000000e+00 0.0000000000000000e+00  0.0000000000000000e+00 0.0000000000000000e+00 0.0000000000000000e+00  0.0000000000000000e+00 0.0000000000000000e+00 0.0000000000000000e+00  0.0000000000000000e+00 7.4768998151321067e-16 0.0000000000000000e+00  4.4041307128505050e-16 1.5394240307058944e-15 0.0000000000000000e+00  0.0000000000000000e+00 4.5276900433988025e-16 0.0000000000000000e+00  0.0000000000000000e+00 0.0000000000000000e+00 0.0000000000000000e+00  0.0000000000000000e+00 -3.4023653640785725e-16 0.0000000000000000e+00  -5.5731519571166537e-16 -2.3623448881919738e-15 0.0000000000000000e+00  6.4050719102542899e-16 1.9734589545438093e-15 0.0000000000000000e+00  0.0000000000000000e+00 5.0355456131020708e-16 0.0000000000000000e+00  0.0000000000000000e+00 0.0000000000000000e+00 0.0000000000000000e+00  0.0000000000000000e+00 0.0000000000000000e+00 0.0000000000000000e+00  -3.1735404449730581e-16 -4.0402586329759235e-16 0.0000000000000000e+00  -8.8368134463918582e-16 -6.2875854353138441e-16 0.0000000000000000e+00  -8.6130235862294279e-16 -3.3059553740716005e-16 0.0000000000000000e+00  -8.2708213541080083e-16 0.0000000000000000e+00 0.0000000000000000e+00  -8.0369936448505679e-16 4.7411681849623063e-16 0.0000000000000000e+00  -6.7548536231705478e-16 4.9959965261459066e-16 0.0000000000000000e+00  -4.6993050655168657e-16 3.3707893325354414e-16 0.0000000000000000e+00  -5.6708251477358507e-16 0.0000000000000000e+00 0.0000000000000000e+00  -7.3728796236999283e-16 0.0000000000000000e+00 0.0000000000000000e+00  0.0000000000000000e+00 0.0000000000000000e+00 0.0000000000000000e+00  0.0000000000000000e+00 -4.0168495658141412e-16 0.0000000000000000e+00  -4.0269118546672352e-16 -1.9207128046417770e-15 0.0000000000000000e+00  -5.5059218364461956e-16 -2.4728460194522780e-15 0.0000000000000000e+00  0.0000000000000000e+00 -3.3047435696964559e-16 0.0000000000000000e+00  0.0000000000000000e+00 0.0000000000000000e+00 0.0000000000000000e+00  0.0000000000000000e+00 0.0000000000000000e+00 0.0000000000000000e+00  0.0000000000000000e+00 -6.1478332165411529e-16 0.0000000000000000e+00  0.0000000000000000e+00 9.2829246202966643e-16 0.0000000000000000e+00  0.0000000000000000e+00 3.3858992956368030e-16 0.0000000000000000e+00  0.0000000000000000e+00 0.0000000000000000e+00 0.0000000000000000e+00  -3.1251575444712459e-16 0.0000000000000000e+00 0.0000000000000000e+00  0.0000000000000000e+00 -4.7038022242327995e-16 0.0000000000000000e+00  0.0000000000000000e+00 -6.5375093190734966e-16 0.0000000000000000e+00  -9.0733338067743635e-16 -4.4574471512212490e-16 0.0000000000000000e+00  -1.2971728294504677e-15 0.0000000000000000e+00 0.0000000000000000e+00  -9.9675624009065287e-16 6.7149458692019646e-16 0.0000000000000000e+00  -5.7657381134178695e-16 1.4770647000156367e-15 0.0000000000000000e+00  -7.7183240298542055e-16 8.1891969073463792e-16 0.0000000000000000e+00  -8.4228084889719986e-16 5.0902110356540846e-16 0.0000000000000000e+00  -9.9725744222437932e-16 4.3479540690623586e-16 0.0000000000000000e+00  0.0000000000000000e+00 0.0000000000000000e+00 0.0000000000000000e+00  0.0000000000000000e+00 0.0000000000000000e+00 0.0000000000000000e+00  -6.6494105766001671e-16 -5.9914766467544045e-16 0.0000000000000000e+00  -3.0072436946488812e-16 0.0000000000000000e+00 0.0000000000000000e+00  0.0000000000000000e+00 0.0000000000000000e+00 0.0000000000000000e+00  0.0000000000000000e+00 0.0000000000000000e+00 0.0000000000000000e+00  0.0000000000000000e+00 0.0000000000000000e+00 0.0000000000000000e+00  4.0851261433668737e-16 0.0000000000000000e+00 0.0000000000000000e+00  4.8705387824729197e-16 0.0000000000000000e+00 0.0000000000000000e+00  0.0000000000000000e+00 3.5960131531845982e-16 0.0000000000000000e+00  0.0000000000000000e+00 0.0000000000000000e+00 0.0000000000000000e+00  -4.1626905146170969e-16 0.0000000000000000e+00 0.0000000000000000e+00  -9.3853780967155467e-16 0.0000000000000000e+00 0.0000000000000000e+00  -1.8336589414060906e-15 0.0000000000000000e+00 0.0000000000000000e+00  -1.2375572913069229e-15 0.0000000000000000e+00 0.0000000000000000e+00  -9.7050924497022051e-16 0.0000000000000000e+00 0.0000000000000000e+00  -1.2875535217636218e-15 6.1293867604077249e-16 0.0000000000000000e+00  -1.5557187543592126e-15 1.0755847017826503e-15 0.0000000000000000e+00  -1.1679379283734274e-15 8.6030288372553562e-16 0.0000000000000000e+00  -1.0105598333297034e-15 6.4339730754839430e-16 0.0000000000000000e+00  -1.0728876941765130e-15 5.8040550094171397e-16 0.0000000000000000e+00  0.0000000000000000e+00 0.0000000000000000e+00 0.0000000000000000e+00  0.0000000000000000e+00 0.0000000000000000e+00 0.0000000000000000e+00  0.0000000000000000e+00 0.0000000000000000e+00 0.0000000000000000e+00  -3.7347058288954881e-16 0.0000000000000000e+00 0.0000000000000000e+00  0.0000000000000000e+00 0.0000000000000000e+00 0.0000000000000000e+00  0.0000000000000000e+00 0.0000000000000000e+00 0.0000000000000000e+00  0.0000000000000000e+00 0.0000000000000000e+00 0.0000000000000000e+00  3.9574193937165902e-16 0.0000000000000000e+00 0.0000000000000000e+00  3.0518152747920901e-16 0.0000000000000000e+00 0.0000000000000000e+00  0.0000000000000000e+00 3.0931307375054789e-16 0.0000000000000000e+00  0.0000000000000000e+00 3.4053860926999686e-16 0.0000000000000000e+00  -3.8453405427134231e-16 3.1552882795779012e-16 0.0000000000000000e+00  -7.3109849981839787e-16 0.0000000000000000e+00 0.0000000000000000e+00  -1.0959641941333728e-15 0.0000000000000000e+00 0.0000000000000000e+00  -6.7289627343127764e-16 0.0000000000000000e+00 0.0000000000000000e+00  -6.4347040523709718e-16 0.0000000000000000e+00 0.0000000000000000e+00  -6.8335225287861294e-16 5.2721502207845761e-16 0.0000000000000000e+00  -1.0720498496115282e-15 6.9959037028614236e-16 0.0000000000000000e+00  -9.7107857251755951e-16 6.8934965865335844e-16 0.0000000000000000e+00  -9.5915300551210451e-16 6.2145102196797957e-16 0.0000000000000000e+00  -9.3266251480490345e-16 5.5667988871265160e-16 0.0000000000000000e+00  0.0000000000000000e+00 0.0000000000000000e+00 0.0000000000000000e+00  0.0000000000000000e+00 0.0000000000000000e+00 0.0000000000000000e+00  0.0000000000000000e+00 0.0000000000000000e+00 0.0000000000000000e+00  0.0000000000000000e+00 0.0000000000000000e+00 0.0000000000000000e+00  0.0000000000000000e+00 0.0000000000000000e+00 0.0000000000000000e+00  5.0516140488118478e-16 0.0000000000000000e+00 0.0000000000000000e+00  6.3972042014706753e-16 0.0000000000000000e+00 0.0000000000000000e+00  5.2528851006067008e-16 0.0000000000000000e+00 0.0000000000000000e+00  0.0000000000000000e+00 0.0000000000000000e+00 0.0000000000000000e+00  0.0000000000000000e+00 0.0000000000000000e+00 0.0000000000000000e+00  0.0000000000000000e+00 3.4051256217978402e-16 0.0000000000000000e+00  0.0000000000000000e+00 5.3440758190984436e-16 0.0000000000000000e+00  4.0357893705966468e-16 6.6877059117432784e-16 0.0000000000000000e+00  3.4461040771377965e-16 6.1524791829950675e-16 0.0000000000000000e+00  0.0000000000000000e+00 4.2443094747880819e-16 0.0000000000000000e+00  0.0000000000000000e+00 3.1584520739098901e-16 0.0000000000000000e+00  0.0000000000000000e+00 4.0805560481791100e-16 0.0000000000000000e+00  -4.6902669817971791e-16 4.2397187042711318e-16 0.0000000000000000e+00  -6.4062473014976158e-16 4.2683227635207905e-16 0.0000000000000000e+00  -6.7278156305019259e-16 5.1618088054918591e-16 0.0000000000000000e+00  -6.7568670581100279e-16 5.0146013108568357e-16 0.0000000000000000e+00  0.0000000000000000e+00 0.0000000000000000e+00 0.0000000000000000e+00  0.0000000000000000e+00 0.0000000000000000e+00 0.0000000000000000e+00  0.0000000000000000e+00 0.0000000000000000e+00 0.0000000000000000e+00  6.9080804331974593e-16 0.0000000000000000e+00 0.0000000000000000e+00  5.8643123096545710e-16 0.0000000000000000e+00 0.0000000000000000e+00  4.0141532671832648e-16 0.0000000000000000e+00 0.0000000000000000e+00  7.9318259477093681e-16 0.0000000000000000e+00 0.0000000000000000e+00  8.0893154979476426e-16 0.0000000000000000e+00 0.0000000000000000e+00  8.3627082775435304e-16 0.0000000000000000e+00 0.0000000000000000e+00  3.7331590155348457e-16 0.0000000000000000e+00 0.0000000000000000e+00  0.0000000000000000e+00 0.0000000000000000e+00 0.0000000000000000e+00  3.6161456142413083e-16 4.9161771678252608e-16 0.0000000000000000e+00  6.1067980148898179e-16 8.2603810195023155e-16 0.0000000000000000e+00  5.7401827407384606e-16 9.6545000607112435e-16 0.0000000000000000e+00  5.1455522913884955e-16 8.3420810062725284e-16 0.0000000000000000e+00  0.0000000000000000e+00 5.0432282115707294e-16 0.0000000000000000e+00  0.0000000000000000e+00 4.1422994804934739e-16 0.0000000000000000e+00  0.0000000000000000e+00 4.1142183035737233e-16 0.0000000000000000e+00  -4.3988384405587170e-16 4.5492678132661493e-16 0.0000000000000000e+00  -3.7509495672799310e-16 4.3223831842394077e-16 0.0000000000000000e+00  -5.2444165848109348e-16 5.7271131410863298e-16 0.0000000000000000e+00  0.0000000000000000e+00 0.0000000000000000e+00 0.0000000000000000e+00  0.0000000000000000e+00 0.0000000000000000e+00 0.0000000000000000e+00  0.0000000000000000e+00 0.0000000000000000e+00 0.0000000000000000e+00  5.6178968474357205e-16 0.0000000000000000e+00 0.0000000000000000e+00  4.8609002997243402e-16 0.0000000000000000e+00 0.0000000000000000e+00  0.0000000000000000e+00 0.0000000000000000e+00 0.0000000000000000e+00  0.0000000000000000e+00 0.0000000000000000e+00 0.0000000000000000e+00  3.0209396594353545e-16 0.0000000000000000e+00 0.0000000000000000e+00  3.3382808673362305e-16 0.0000000000000000e+00 0.0000000000000000e+00  6.4509285773210859e-16 0.0000000000000000e+00 0.0000000000000000e+00  5.7018213451211028e-16 0.0000000000000000e+00 0.0000000000000000e+00  6.4816329417954528e-16 4.7757317248892992e-16 0.0000000000000000e+00  0.0000000000000000e+00 6.8460858396263445e-16 0.0000000000000000e+00  3.3521367302727429e-16 8.3952980980930007e-16 0.0000000000000000e+00  3.7217981005079061e-16 8.3705987952242081e-16 0.0000000000000000e+00  0.0000000000000000e+00 7.5525093763331269e-16 0.0000000000000000e+00  0.0000000000000000e+00 6.0809023723609047e-16 0.0000000000000000e+00  0.0000000000000000e+00 5.8140376446228100e-16 0.0000000000000000e+00  0.0000000000000000e+00 5.6440496453022550e-16 0.0000000000000000e+00  -6.2493804806963272e-16 5.5663258302414311e-16 0.0000000000000000e+00  -5.5243443374855676e-16 5.0209101766376738e-16 0.0000000000000000e+00  0.0000000000000000e+00 0.0000000000000000e+00 0.0000000000000000e+00  0.0000000000000000e+00 0.0000000000000000e+00 0.0000000000000000e+00  0.0000000000000000e+00 -3.4644762359155573e-16 0.0000000000000000e+00  0.0000000000000000e+00 -3.9124212507018588e-16 0.0000000000000000e+00  0.0000000000000000e+00 0.0000000000000000e+00 0.0000000000000000e+00  0.0000000000000000e+00 0.0000000000000000e+00 0.0000000000000000e+00  3.8391270937602243e-16 0.0000000000000000e+00 0.0000000000000000e+00  0.0000000000000000e+00 0.0000000000000000e+00 0.0000000000000000e+00  0.0000000000000000e+00 0.0000000000000000e+00 0.0000000000000000e+00  7.1363404371916736e-16 0.0000000000000000e+00 0.0000000000000000e+00  5.2634525979625057e-16 3.4207865842105336e-16 0.0000000000000000e+00  4.4047577200997744e-16 4.9470877036970551e-16 0.0000000000000000e+00  3.6535847921292745e-16 6.9333708642686998e-16 0.0000000000000000e+00  4.7233366857988141e-16 7.5769022993127261e-16 0.0000000000000000e+00  0.0000000000000000e+00 8.0331448408364321e-16 0.0000000000000000e+00  0.0000000000000000e+00 8.5343612573781739e-16 0.0000000000000000e+00  0.0000000000000000e+00 7.9047252282740641e-16 0.0000000000000000e+00  -3.7166658998675661e-16 6.7101560290741856e-16 0.0000000000000000e+00  0.0000000000000000e+00 5.3105343247533862e-16 0.0000000000000000e+00  0.0000000000000000e+00 5.3587910105386010e-16 0.0000000000000000e+00  0.0000000000000000e+00 4.6199302098868114e-16 0.0000000000000000e+00  0.0000000000000000e+00 0.0000000000000000e+00 0.0000000000000000e+00  0.0000000000000000e+00 0.0000000000000000e+00 0.0000000000000000e+00  0.0000000000000000e+00 0.0000000000000000e+00 0.0000000000000000e+00  -4.0217465487953200e-16 -3.6722692099964998e-16 0.0000000000000000e+00  -4.3449332524905456e-16 0.0000000000000000e+00 0.0000000000000000e+00  -5.6961750760163845e-16 0.0000000000000000e+00 0.0000000000000000e+00  -3.7778654711902732e-16 0.0000000000000000e+00 0.0000000000000000e+00  0.0000000000000000e+00 0.0000000000000000e+00 0.0000000000000000e+00  0.0000000000000000e+00 0.0000000000000000e+00 0.0000000000000000e+00  0.0000000000000000e+00 0.0000000000000000e+00 0.0000000000000000e+00  0.0000000000000000e+00 3.0371072091333677e-16 0.0000000000000000e+00  0.0000000000000000e+00 5.2272894427626549e-16 0.0000000000000000e+00  0.0000000000000000e+00 7.3997449297775630e-16 0.0000000000000000e+00  -3.8834921087654347e-16 7.3725607452512002e-16 0.0000000000000000e+00  -5.5744036617552727e-16 7.5842764313587594e-16 0.0000000000000000e+00  -3.3130211729968977e-16 8.7379760768896863e-16 0.0000000000000000e+00  -5.2075857695670998e-16 9.2318391959116616e-16 0.0000000000000000e+00  -4.0849785205755018e-16 8.2292647198355415e-16 0.0000000000000000e+00  -4.8558362512928201e-16 6.9720370861241437e-16 0.0000000000000000e+00  -4.8239336415563999e-16 5.5675510892348332e-16 0.0000000000000000e+00  -5.8192514657181527e-16 4.7553207614767673e-16 0.0000000000000000e+00  0.0000000000000000e+00 0.0000000000000000e+00 0.0000000000000000e+00  0.0000000000000000e+00 -3.8971484613993220e-16 0.0000000000000000e+00  0.0000000000000000e+00 -3.3565655290238345e-16 0.0000000000000000e+00  0.0000000000000000e+00 0.0000000000000000e+00 0.0000000000000000e+00  0.0000000000000000e+00 0.0000000000000000e+00 0.0000000000000000e+00  -4.3868493805664309e-16 0.0000000000000000e+00 0.0000000000000000e+00  0.0000000000000000e+00 0.0000000000000000e+00 0.0000000000000000e+00  0.0000000000000000e+00 0.0000000000000000e+00 0.0000000000000000e+00  0.0000000000000000e+00 0.0000000000000000e+00 0.0000000000000000e+00  0.0000000000000000e+00 0.0000000000000000e+00 0.0000000000000000e+00  0.0000000000000000e+00 0.0000000000000000e+00 0.0000000000000000e+00  0.0000000000000000e+00 4.8132720517923313e-16 0.0000000000000000e+00  0.0000000000000000e+00 7.8480766959142729e-16 0.0000000000000000e+00  0.0000000000000000e+00 9.7442463302276936e-16 0.0000000000000000e+00  3.4628647841714684e-16 9.5290233167518827e-16 0.0000000000000000e+00  0.0000000000000000e+00 9.7059840046829458e-16 0.0000000000000000e+00  -3.7425359858088426e-16 8.3209931431347987e-16 0.0000000000000000e+00  0.0000000000000000e+00 8.1517433981014642e-16 0.0000000000000000e+00  0.0000000000000000e+00 7.0180444992143357e-16 0.0000000000000000e+00  -4.2222310141143838e-16 5.7190319067180884e-16 0.0000000000000000e+00  0.0000000000000000e+00 4.7899918302488038e-16 0.0000000000000000e+00  0.0000000000000000e+00 0.0000000000000000e+00 0.0000000000000000e+00  0.0000000000000000e+00 -3.8979068056145577e-16 0.0000000000000000e+00  0.0000000000000000e+00 0.0000000000000000e+00 0.0000000000000000e+00  0.0000000000000000e+00 0.0000000000000000e+00 0.0000000000000000e+00  3.1708285133815224e-16 0.0000000000000000e+00 0.0000000000000000e+00  6.6179993074912562e-16 0.0000000000000000e+00 0.0000000000000000e+00  0.0000000000000000e+00 -4.8270383454100861e-16 0.0000000000000000e+00  0.0000000000000000e+00 0.0000000000000000e+00 0.0000000000000000e+00  7.4901638865879175e-16 0.0000000000000000e+00 0.0000000000000000e+00  4.0702038966927143e-16 0.0000000000000000e+00 0.0000000000000000e+00  8.1426670502176982e-16 0.0000000000000000e+00 0.0000000000000000e+00  4.1389716375283334e-16 4.5448344238298157e-16 0.0000000000000000e+00  4.9365782814221838e-16 8.6849353841427923e-16 0.0000000000000000e+00  0.0000000000000000e+00 1.1240905037712184e-15 0.0000000000000000e+00  0.0000000000000000e+00 1.1860247089752898e-15 0.0000000000000000e+00  0.0000000000000000e+00 1.0796449744350163e-15 0.0000000000000000e+00  -4.6918601683970396e-16 6.8496215637072096e-16 0.0000000000000000e+00  0.0000000000000000e+00 4.7162876594262642e-16 0.0000000000000000e+00  3.6471831188273675e-16 4.6242682421153706e-16 0.0000000000000000e+00  4.0545867298595728e-16 3.6563893295811239e-16 0.0000000000000000e+00  6.3045601834858056e-16 3.9795551204318025e-16 0.0000000000000000e+00  0.0000000000000000e+00 0.0000000000000000e+00 0.0000000000000000e+00  0.0000000000000000e+00 -3.5346525641972226e-16 0.0000000000000000e+00  0.0000000000000000e+00 -3.3184202637012445e-16 0.0000000000000000e+00  0.0000000000000000e+00 0.0000000000000000e+00 0.0000000000000000e+00  4.5308238801403816e-16 -3.1049753177686123e-16 0.0000000000000000e+00  1.3649916498680993e-15 -3.0788801555336652e-16 0.0000000000000000e+00  1.0414617897353057e-15 -3.9351781580181837e-16 0.0000000000000000e+00  7.6300096508168891e-16 -3.8177776139239149e-16 0.0000000000000000e+00  1.0652836811629626e-15 0.0000000000000000e+00 0.0000000000000000e+00  6.2402335779642752e-16 0.0000000000000000e+00 0.0000000000000000e+00  3.5606919696966901e-16 3.4028181668576533e-16 0.0000000000000000e+00  0.0000000000000000e+00 6.0567352762929420e-16 0.0000000000000000e+00  0.0000000000000000e+00 8.9977964371550101e-16 0.0000000000000000e+00  0.0000000000000000e+00 1.1772743321818089e-15 0.0000000000000000e+00  0.0000000000000000e+00 1.2612432072846337e-15 0.0000000000000000e+00  3.6662669158785553e-16 9.5626284119141718e-16 0.0000000000000000e+00  5.2533955919049624e-16 5.4078489239914610e-16 0.0000000000000000e+00  0.0000000000000000e+00 0.0000000000000000e+00 0.0000000000000000e+00  5.9213603134545446e-16 0.0000000000000000e+00 0.0000000000000000e+00  6.0696115495729097e-16 0.0000000000000000e+00 0.0000000000000000e+00  1.2979376987646243e-15 0.0000000000000000e+00 0.0000000000000000e+00  0.0000000000000000e+00 0.0000000000000000e+00 0.0000000000000000e+00  0.0000000000000000e+00 -3.3354028077823529e-16 0.0000000000000000e+00  0.0000000000000000e+00 -5.0706567208345320e-16 0.0000000000000000e+00  6.8246416021065534e-16 -4.3583382180943365e-16 0.0000000000000000e+00  5.8559445969421375e-16 -4.9581981645782163e-16 0.0000000000000000e+00  9.6601282177607790e-16 -6.3343897642953920e-16 0.0000000000000000e+00  1.1887462538082234e-15 -3.1007299373704373e-16 0.0000000000000000e+00  9.4540207579278979e-16 0.0000000000000000e+00 0.0000000000000000e+00  1.0484432135119773e-15 0.0000000000000000e+00 0.0000000000000000e+00  4.0820239627601369e-16 3.9253873968857349e-16 0.00000000