<?xml version="1.0"?>
<VTKFile type="UnstructuredGrid"  version="0.1"  >
<UnstructuredGrid>
<Piece  NumberOfPoints="21" NumberOfCells="20">
<Points>
<DataArray  type="Float64"  NumberOfComponents="3"  format="ascii">0 0 0  0.05 0 0  0.1 0 0  0.15 0 0  0.2 0 0  0.25 0 0  0.3 0 0  0.35 0 0  0.4 0 0  0.45 0 0  0.5 0 0  0.55 0 0  0.6 0 0  0.65 0 0  0.7 0 0  0.75 0 0  0.8 0 0  0.85 0 0  0.9 0 0  0.95 0 0  1 0 0  </DataArray>
</Points>
<Cells>
<DataArray  type="UInt32"  Name="connectivity"  format="ascii">0 1  1 2  2 3  3 4  4 5  5 6  6 7  7 8  8 9  9 10  10 11  11 12  12 13  13 14  14 15  15 16  16 17  17 18  18 19  19 20  </DataArray>
<DataArray  type="UInt32"  Name="offsets"  format="ascii">2 4 6 8 10 12 14 16 18 20 22 24 26 28 30 32 34 36 38 40 </DataArray>
<DataArray  type="UInt8"  Name="types"  format="ascii">3 3 3 3 3 3 3 3 3 3 3 3 3 3 3 3 3 3 3 3 </DataArray>
</Cells>
<PointData  Scalars="u"> 
<DataArray  type="Float64"  Name="u"  format="ascii">-3.0567516609423108e-04  4.7252933205846528e+00  9.3907927603950316e+00  1.2059881603140569e+01  1.3531675502895251e+01  1.4372370734811760e+01  1.4149797215232301e+01  1.4031841109997613e+01  1.4567462219889277e+01  1.5987475419425143e+01  1.8678710830792681e+01  2.3798541805054043e+01  3.1356688571429519e+01  2.8743249055734498e+01  2.1621829077516232e+01  1.6878329085013803e+01  1.2820660368806630e+01  9.2328948006588867e+00  5.9576906930515001e+00  2.9026868954215312e+00  -3.0567516609324060e-04  </DataArray> 
</PointData> 
</Piece>
</UnstructuredGrid>
</VTKFile>