<?xml version="1.0"?>
<VTKFile type="UnstructuredGrid"  version="0.1"  >
<UnstructuredGrid>
<Piece  NumberOfPoints="21" NumberOfCells="20">
<Points>
<DataArray  type="Float64"  NumberOfComponents="3"  format="ascii">0 0 0  0.05 0 0  0.1 0 0  0.15 0 0  0.2 0 0  0.25 0 0  0.3 0 0  0.35 0 0  0.4 0 0  0.45 0 0  0.5 0 0  0.55 0 0  0.6 0 0  0.65 0 0  0.7 0 0  0.75 0 0  0.8 0 0  0.85 0 0  0.9 0 0  0.95 0 0  1 0 0  </DataArray>
</Points>
<Cells>
<DataArray  type="UInt32"  Name="connectivity"  format="ascii">0 1  1 2  2 3  3 4  4 5  5 6  6 7  7 8  8 9  9 10  10 11  11 12  12 13  13 14  14 15  15 16  16 17  17 18  18 19  19 20  </DataArray>
<DataArray  type="UInt32"  Name="offsets"  format="ascii">2 4 6 8 10 12 14 16 18 20 22 24 26 28 30 32 34 36 38 40 </DataArray>
<DataArray  type="UInt8"  Name="types"  format="ascii">3 3 3 3 3 3 3 3 3 3 3 3 3 3 3 3 3 3 3 3 </DataArray>
</Cells>
<PointData  Scalars="u"> 
<DataArray  type="Float64"  Name="u"  format="ascii">-1.1430970689323748e-02  7.7289119117076277e+00  1.5754109335762733e+01  2.0618120187386850e+01  2.2936796186491353e+01  2.5088638375815083e+01  2.7350743768878431e+01  3.0848883846977383e+01  3.4979380284870267e+01  3.9420630931255104e+01  4.5809996746398056e+01  5.4325939505032551e+01  6.7680020148505818e+01  7.7720143265208392e+01  5.9785393698269601e+01  4.4886454265423211e+01  3.7729189631160679e+01  3.4321999493477847e+01  2.4897396126782926e+01  1.1463144182211312e+01  -1.1430970689325862e-02  </DataArray> 
</PointData> 
</Piece>
</UnstructuredGrid>
</VTKFile>