<?xml version="1.0"?>
<VTKFile type="UnstructuredGrid"  version="0.1"  >
<UnstructuredGrid>
<Piece  NumberOfPoints="21" NumberOfCells="20">
<Points>
<DataArray  type="Float64"  NumberOfComponents="3"  format="ascii">0 0 0  0.05 0 0  0.1 0 0  0.15 0 0  0.2 0 0  0.25 0 0  0.3 0 0  0.35 0 0  0.4 0 0  0.45 0 0  0.5 0 0  0.55 0 0  0.6 0 0  0.65 0 0  0.7 0 0  0.75 0 0  0.8 0 0  0.85 0 0  0.9 0 0  0.95 0 0  1 0 0  </DataArray>
</Points>
<Cells>
<DataArray  type="UInt32"  Name="connectivity"  format="ascii">0 1  1 2  2 3  3 4  4 5  5 6  6 7  7 8  8 9  9 10  10 11  11 12  12 13  13 14  14 15  15 16  16 17  17 18  18 19  19 20  </DataArray>
<DataArray  type="UInt32"  Name="offsets"  format="ascii">2 4 6 8 10 12 14 16 18 20 22 24 26 28 30 32 34 36 38 40 </DataArray>
<DataArray  type="UInt8"  Name="types"  format="ascii">3 3 3 3 3 3 3 3 3 3 3 3 3 3 3 3 3 3 3 3 </DataArray>
</Cells>
<PointData  Scalars="u"> 
<DataArray  type="Float64"  Name="u"  format="ascii">-1.9707462137323543e-02  1.3513694828972667e+00  2.7551453010487994e+00  4.1980450844471173e+00  6.2343482586995140e+00  7.8059471494600343e+00  8.3907705130255543e+00  9.1504929713569574e+00  8.3664908192314194e+00  7.0980363884143287e+00  6.4381944463591694e+00  6.0700317871151341e+00  6.1213233391242934e+00  6.3398351753313200e+00  6.2218214270496706e+00  6.1063258108337735e+00  6.3136720876068271e+00  7.0251207523313441e+00  5.1421416777014688e+00  2.3025145301610661e+00  -1.9707462137323918e-02  </DataArray> 
</PointData> 
</Piece>
</UnstructuredGrid>
</VTKFile>