<?xml version="1.0"?>
<VTKFile type="UnstructuredGrid"  version="0.1"  >
<UnstructuredGrid>
<Piece  NumberOfPoints="21" NumberOfCells="20">
<Points>
<DataArray  type="Float64"  NumberOfComponents="3"  format="ascii">0 0 0  0.05 0 0  0.1 0 0  0.15 0 0  0.2 0 0  0.25 0 0  0.3 0 0  0.35 0 0  0.4 0 0  0.45 0 0  0.5 0 0  0.55 0 0  0.6 0 0  0.65 0 0  0.7 0 0  0.75 0 0  0.8 0 0  0.85 0 0  0.9 0 0  0.95 0 0  1 0 0  </DataArray>
</Points>
<Cells>
<DataArray  type="UInt32"  Name="connectivity"  format="ascii">0 1  1 2  2 3  3 4  4 5  5 6  6 7  7 8  8 9  9 10  10 11  11 12  12 13  13 14  14 15  15 16  16 17  17 18  18 19  19 20  </DataArray>
<DataArray  type="UInt32"  Name="offsets"  format="ascii">2 4 6 8 10 12 14 16 18 20 22 24 26 28 30 32 34 36 38 40 </DataArray>
<DataArray  type="UInt8"  Name="types"  format="ascii">3 3 3 3 3 3 3 3 3 3 3 3 3 3 3 3 3 3 3 3 </DataArray>
</Cells>
<PointData  Scalars="u"> 
<DataArray  type="Float64"  Name="u"  format="ascii">-3.8947930167468376e-15  6.4849338463631403e+00  1.3130570049821038e+01  1.5192197404606979e+01  1.4565895145144442e+01  1.3729934905678975e+01  1.2326656747766727e+01  1.1404321181917988e+01  1.0631457825754785e+01  9.7313593894033144e+00  9.1827480449456633e+00  8.8989553944155073e+00  8.0169807121363075e+00  6.5823985046071822e+00  5.8568588594260591e+00  5.4256610625523294e+00  4.6403191061968050e+00  3.6456128015352882e+00  2.4927186396440373e+00  1.2159221748970261e+00  0.0000000000000000e+00  </DataArray> 
</PointData> 
</Piece>
</UnstructuredGrid>
</VTKFile>