<?xml version="1.0"?>
<VTKFile type="UnstructuredGrid"  version="0.1"  >
<UnstructuredGrid>
<Piece  NumberOfPoints="21" NumberOfCells="20">
<Points>
<DataArray  type="Float64"  NumberOfComponents="3"  format="ascii">0 0 0  0.05 0 0  0.1 0 0  0.15 0 0  0.2 0 0  0.25 0 0  0.3 0 0  0.35 0 0  0.4 0 0  0.45 0 0  0.5 0 0  0.55 0 0  0.6 0 0  0.65 0 0  0.7 0 0  0.75 0 0  0.8 0 0  0.85 0 0  0.9 0 0  0.95 0 0  1 0 0  </DataArray>
</Points>
<Cells>
<DataArray  type="UInt32"  Name="connectivity"  format="ascii">0 1  1 2  2 3  3 4  4 5  5 6  6 7  7 8  8 9  9 10  10 11  11 12  12 13  13 14  14 15  15 16  16 17  17 18  18 19  19 20  </DataArray>
<DataArray  type="UInt32"  Name="offsets"  format="ascii">2 4 6 8 10 12 14 16 18 20 22 24 26 28 30 32 34 36 38 40 </DataArray>
<DataArray  type="UInt8"  Name="types"  format="ascii">3 3 3 3 3 3 3 3 3 3 3 3 3 3 3 3 3 3 3 3 </DataArray>
</Cells>
<PointData  Scalars="u"> 
<DataArray  type="Float64"  Name="u"  format="ascii">-1.1848044945259657e-02  9.2613234960099824e+00  1.9029830554020002e+01  2.3733616604883160e+01  2.4445604647122977e+01  2.5278957820391273e+01  2.6465306653919196e+01  2.9006881116727175e+01  3.2098399415421376e+01  3.5202843680378713e+01  3.9792162363863589e+01  4.5939738914692711e+01  5.5290996148089462e+01  6.3299527074333454e+01  5.4321438146983525e+01  4.8997872118169340e+01  5.1831198473915826e+01  6.1013127274933019e+01  4.9212058415238523e+01  2.2126470082727543e+01  -1.1848044945260388e-02  </DataArray> 
</PointData> 
</Piece>
</UnstructuredGrid>
</VTKFile>