<?xml version="1.0"?>
<VTKFile type="UnstructuredGrid"  version="0.1"  >
<UnstructuredGrid>
<Piece  NumberOfPoints="21" NumberOfCells="20">
<Points>
<DataArray  type="Float64"  NumberOfComponents="3"  format="ascii">0 0 0  0.05 0 0  0.1 0 0  0.15 0 0  0.2 0 0  0.25 0 0  0.3 0 0  0.35 0 0  0.4 0 0  0.45 0 0  0.5 0 0  0.55 0 0  0.6 0 0  0.65 0 0  0.7 0 0  0.75 0 0  0.8 0 0  0.85 0 0  0.9 0 0  0.95 0 0  1 0 0  </DataArray>
</Points>
<Cells>
<DataArray  type="UInt32"  Name="connectivity"  format="ascii">0 1  1 2  2 3  3 4  4 5  5 6  6 7  7 8  8 9  9 10  10 11  11 12  12 13  13 14  14 15  15 16  16 17  17 18  18 19  19 20  </DataArray>
<DataArray  type="UInt32"  Name="offsets"  format="ascii">2 4 6 8 10 12 14 16 18 20 22 24 26 28 30 32 34 36 38 40 </DataArray>
<DataArray  type="UInt8"  Name="types"  format="ascii">3 3 3 3 3 3 3 3 3 3 3 3 3 3 3 3 3 3 3 3 </DataArray>
</Cells>
<PointData  Scalars="u"> 
<DataArray  type="Float64"  Name="u"  format="ascii">-1.2285261439997941e-02  3.8958455738215825e+01  7.9379724434892651e+01  1.1137022712816704e+02  1.3764032604443790e+02  1.6686067283219793e+02  1.9993123153867253e+02  2.3842251984318230e+02  2.8208679719723813e+02  3.3161731281909795e+02  3.9095632626673324e+02  4.6342890718380113e+02  5.5586015412459312e+02  6.7454817771829312e+02  8.2369700841285226e+02  1.0687649477095988e+03  1.5149775320892670e+03  2.2368438629840502e+03  1.9635966787759371e+03  8.8160504494642635e+02  -1.2285261440254274e-02  </DataArray> 
</PointData> 
</Piece>
</UnstructuredGrid>
</VTKFile>