<?xml version="1.0"?>
<VTKFile type="UnstructuredGrid"  version="0.1"  >
<UnstructuredGrid>
<Piece  NumberOfPoints="21" NumberOfCells="20">
<Points>
<DataArray  type="Float64"  NumberOfComponents="3"  format="ascii">0 0 0  0.05 0 0  0.1 0 0  0.15 0 0  0.2 0 0  0.25 0 0  0.3 0 0  0.35 0 0  0.4 0 0  0.45 0 0  0.5 0 0  0.55 0 0  0.6 0 0  0.65 0 0  0.7 0 0  0.75 0 0  0.8 0 0  0.85 0 0  0.9 0 0  0.95 0 0  1 0 0  </DataArray>
</Points>
<Cells>
<DataArray  type="UInt32"  Name="connectivity"  format="ascii">0 1  1 2  2 3  3 4  4 5  5 6  6 7  7 8  8 9  9 10  10 11  11 12  12 13  13 14  14 15  15 16  16 17  17 18  18 19  19 20  </DataArray>
<DataArray  type="UInt32"  Name="offsets"  format="ascii">2 4 6 8 10 12 14 16 18 20 22 24 26 28 30 32 34 36 38 40 </DataArray>
<DataArray  type="UInt8"  Name="types"  format="ascii">3 3 3 3 3 3 3 3 3 3 3 3 3 3 3 3 3 3 3 3 </DataArray>
</Cells>
<PointData  Scalars="u"> 
<DataArray  type="Float64"  Name="u"  format="ascii">1.2384701252981010e-04  -1.3027419404511823e-02  -2.6365879341975151e-02  -3.8055484778298149e-02  -5.2291340991445008e-02  -6.3151321456192178e-02  -6.7041692350157681e-02  -7.2219708954571207e-02  -6.8341168250957651e-02  -6.2196635793551648e-02  -6.1026526371742391e-02  -6.3795768915747009e-02  -7.1403078426499275e-02  -7.2323867594950839e-02  -6.7470828069046626e-02  -6.5762741916990580e-02  -6.9248444000768031e-02  -7.9733116254928335e-02  -6.1764744359756589e-02  -2.7877819652262555e-02  1.2384701252979424e-04  </DataArray> 
</PointData> 
</Piece>
</UnstructuredGrid>
</VTKFile>