<?xml version="1.0"?>
<VTKFile type="UnstructuredGrid"  version="0.1"  >
<UnstructuredGrid>
<Piece  NumberOfPoints="441" NumberOfCells="800">
<Points>
<DataArray  type="Float64"  NumberOfComponents="3"  format="ascii">0 0 0  0.05 0 0  0.1 0 0  0.15 0 0  0.2 0 0  0.25 0 0  0.3 0 0  0.35 0 0  0.4 0 0  0.45 0 0  0.5 0 0  0.55 0 0  0.6 0 0  0.65 0 0  0.7 0 0  0.75 0 0  0.8 0 0  0.85 0 0  0.9 0 0  0.95 0 0  1 0 0  0 0.05 0  0.05 0.05 0  0.1 0.05 0  0.15 0.05 0  0.2 0.05 0  0.25 0.05 0  0.3 0.05 0  0.35 0.05 0  0.4 0.05 0  0.45 0.05 0  0.5 0.05 0  0.55 0.05 0  0.6 0.05 0  0.65 0.05 0  0.7 0.05 0  0.75 0.05 0  0.8 0.05 0  0.85 0.05 0  0.9 0.05 0  0.95 0.05 0  1 0.05 0  0 0.1 0  0.05 0.1 0  0.1 0.1 0  0.15 0.1 0  0.2 0.1 0  0.25 0.1 0  0.3 0.1 0  0.35 0.1 0  0.4 0.1 0  0.45 0.1 0  0.5 0.1 0  0.55 0.1 0  0.6 0.1 0  0.65 0.1 0  0.7 0.1 0  0.75 0.1 0  0.8 0.1 0  0.85 0.1 0  0.9 0.1 0  0.95 0.1 0  1 0.1 0  0 0.15 0  0.05 0.15 0  0.1 0.15 0  0.15 0.15 0  0.2 0.15 0  0.25 0.15 0  0.3 0.15 0  0.35 0.15 0  0.4 0.15 0  0.45 0.15 0  0.5 0.15 0  0.55 0.15 0  0.6 0.15 0  0.65 0.15 0  0.7 0.15 0  0.75 0.15 0  0.8 0.15 0  0.85 0.15 0  0.9 0.15 0  0.95 0.15 0  1 0.15 0  0 0.2 0  0.05 0.2 0  0.1 0.2 0  0.15 0.2 0  0.2 0.2 0  0.25 0.2 0  0.3 0.2 0  0.35 0.2 0  0.4 0.2 0  0.45 0.2 0  0.5 0.2 0  0.55 0.2 0  0.6 0.2 0  0.65 0.2 0  0.7 0.2 0  0.75 0.2 0  0.8 0.2 0  0.85 0.2 0  0.9 0.2 0  0.95 0.2 0  1 0.2 0  0 0.25 0  0.05 0.25 0  0.1 0.25 0  0.15 0.25 0  0.2 0.25 0  0.25 0.25 0  0.3 0.25 0  0.35 0.25 0  0.4 0.25 0  0.45 0.25 0  0.5 0.25 0  0.55 0.25 0  0.6 0.25 0  0.65 0.25 0  0.7 0.25 0  0.75 0.25 0  0.8 0.25 0  0.85 0.25 0  0.9 0.25 0  0.95 0.25 0  1 0.25 0  0 0.3 0  0.05 0.3 0  0.1 0.3 0  0.15 0.3 0  0.2 0.3 0  0.25 0.3 0  0.3 0.3 0  0.35 0.3 0  0.4 0.3 0  0.45 0.3 0  0.5 0.3 0  0.55 0.3 0  0.6 0.3 0  0.65 0.3 0  0.7 0.3 0  0.75 0.3 0  0.8 0.3 0  0.85 0.3 0  0.9 0.3 0  0.95 0.3 0  1 0.3 0  0 0.35 0  0.05 0.35 0  0.1 0.35 0  0.15 0.35 0  0.2 0.35 0  0.25 0.35 0  0.3 0.35 0  0.35 0.35 0  0.4 0.35 0  0.45 0.35 0  0.5 0.35 0  0.55 0.35 0  0.6 0.35 0  0.65 0.35 0  0.7 0.35 0  0.75 0.35 0  0.8 0.35 0  0.85 0.35 0  0.9 0.35 0  0.95 0.35 0  1 0.35 0  0 0.4 0  0.05 0.4 0  0.1 0.4 0  0.15 0.4 0  0.2 0.4 0  0.25 0.4 0  0.3 0.4 0  0.35 0.4 0  0.4 0.4 0  0.45 0.4 0  0.5 0.4 0  0.55 0.4 0  0.6 0.4 0  0.65 0.4 0  0.7 0.4 0  0.75 0.4 0  0.8 0.4 0  0.85 0.4 0  0.9 0.4 0  0.95 0.4 0  1 0.4 0  0 0.45 0  0.05 0.45 0  0.1 0.45 0  0.15 0.45 0  0.2 0.45 0  0.25 0.45 0  0.3 0.45 0  0.35 0.45 0  0.4 0.45 0  0.45 0.45 0  0.5 0.45 0  0.55 0.45 0  0.6 0.45 0  0.65 0.45 0  0.7 0.45 0  0.75 0.45 0  0.8 0.45 0  0.85 0.45 0  0.9 0.45 0  0.95 0.45 0  1 0.45 0  0 0.5 0  0.05 0.5 0  0.1 0.5 0  0.15 0.5 0  0.2 0.5 0  0.25 0.5 0  0.3 0.5 0  0.35 0.5 0  0.4 0.5 0  0.45 0.5 0  0.5 0.5 0  0.55 0.5 0  0.6 0.5 0  0.65 0.5 0  0.7 0.5 0  0.75 0.5 0  0.8 0.5 0  0.85 0.5 0  0.9 0.5 0  0.95 0.5 0  1 0.5 0  0 0.55 0  0.05 0.55 0  0.1 0.55 0  0.15 0.55 0  0.2 0.55 0  0.25 0.55 0  0.3 0.55 0  0.35 0.55 0  0.4 0.55 0  0.45 0.55 0  0.5 0.55 0  0.55 0.55 0  0.6 0.55 0  0.65 0.55 0  0.7 0.55 0  0.75 0.55 0  0.8 0.55 0  0.85 0.55 0  0.9 0.55 0  0.95 0.55 0  1 0.55 0  0 0.6 0  0.05 0.6 0  0.1 0.6 0  0.15 0.6 0  0.2 0.6 0  0.25 0.6 0  0.3 0.6 0  0.35 0.6 0  0.4 0.6 0  0.45 0.6 0  0.5 0.6 0  0.55 0.6 0  0.6 0.6 0  0.65 0.6 0  0.7 0.6 0  0.75 0.6 0  0.8 0.6 0  0.85 0.6 0  0.9 0.6 0  0.95 0.6 0  1 0.6 0  0 0.65 0  0.05 0.65 0  0.1 0.65 0  0.15 0.65 0  0.2 0.65 0  0.25 0.65 0  0.3 0.65 0  0.35 0.65 0  0.4 0.65 0  0.45 0.65 0  0.5 0.65 0  0.55 0.65 0  0.6 0.65 0  0.65 0.65 0  0.7 0.65 0  0.75 0.65 0  0.8 0.65 0  0.85 0.65 0  0.9 0.65 0  0.95 0.65 0  1 0.65 0  0 0.7 0  0.05 0.7 0  0.1 0.7 0  0.15 0.7 0  0.2 0.7 0  0.25 0.7 0  0.3 0.7 0  0.35 0.7 0  0.4 0.7 0  0.45 0.7 0  0.5 0.7 0  0.55 0.7 0  0.6 0.7 0  0.65 0.7 0  0.7 0.7 0  0.75 0.7 0  0.8 0.7 0  0.85 0.7 0  0.9 0.7 0  0.95 0.7 0  1 0.7 0  0 0.75 0  0.05 0.75 0  0.1 0.75 0  0.15 0.75 0  0.2 0.75 0  0.25 0.75 0  0.3 0.75 0  0.35 0.75 0  0.4 0.75 0  0.45 0.75 0  0.5 0.75 0  0.55 0.75 0  0.6 0.75 0  0.65 0.75 0  0.7 0.75 0  0.75 0.75 0  0.8 0.75 0  0.85 0.75 0  0.9 0.75 0  0.95 0.75 0  1 0.75 0  0 0.8 0  0.05 0.8 0  0.1 0.8 0  0.15 0.8 0  0.2 0.8 0  0.25 0.8 0  0.3 0.8 0  0.35 0.8 0  0.4 0.8 0  0.45 0.8 0  0.5 0.8 0  0.55 0.8 0  0.6 0.8 0  0.65 0.8 0  0.7 0.8 0  0.75 0.8 0  0.8 0.8 0  0.85 0.8 0  0.9 0.8 0  0.95 0.8 0  1 0.8 0  0 0.85 0  0.05 0.85 0  0.1 0.85 0  0.15 0.85 0  0.2 0.85 0  0.25 0.85 0  0.3 0.85 0  0.35 0.85 0  0.4 0.85 0  0.45 0.85 0  0.5 0.85 0  0.55 0.85 0  0.6 0.85 0  0.65 0.85 0  0.7 0.85 0  0.75 0.85 0  0.8 0.85 0  0.85 0.85 0  0.9 0.85 0  0.95 0.85 0  1 0.85 0  0 0.9 0  0.05 0.9 0  0.1 0.9 0  0.15 0.9 0  0.2 0.9 0  0.25 0.9 0  0.3 0.9 0  0.35 0.9 0  0.4 0.9 0  0.45 0.9 0  0.5 0.9 0  0.55 0.9 0  0.6 0.9 0  0.65 0.9 0  0.7 0.9 0  0.75 0.9 0  0.8 0.9 0  0.85 0.9 0  0.9 0.9 0  0.95 0.9 0  1 0.9 0  0 0.95 0  0.05 0.95 0  0.1 0.95 0  0.15 0.95 0  0.2 0.95 0  0.25 0.95 0  0.3 0.95 0  0.35 0.95 0  0.4 0.95 0  0.45 0.95 0  0.5 0.95 0  0.55 0.95 0  0.6 0.95 0  0.65 0.95 0  0.7 0.95 0  0.75 0.95 0  0.8 0.95 0  0.85 0.95 0  0.9 0.95 0  0.95 0.95 0  1 0.95 0  0 1 0  0.05 1 0  0.1 1 0  0.15 1 0  0.2 1 0  0.25 1 0  0.3 1 0  0.35 1 0  0.4 1 0  0.45 1 0  0.5 1 0  0.55 1 0  0.6 1 0  0.65 1 0  0.7 1 0  0.75 1 0  0.8 1 0  0.85 1 0  0.9 1 0  0.95 1 0  1 1 0  </DataArray>
</Points>
<Cells>
[...]
<PointData  Scalars="u"> 
<DataArray  type="Float64"  Name="u"  format="ascii">0.0000000000000000e+00  0.0000000000000000e+00  0.0000000000000000e+00  0.0000000000000000e+00  0.0000000000000000e+00  0.0000000000000000e+00  0.0000000000000000e+00  0.0000000000000000e+00  0.0000000000000000e+00  0.0000000000000000e+00  0.0000000000000000e+00  0.0000000000000000e+00  0.0000000000000000e+00  0.0000000000000000e+00  0.0000000000000000e+00  0.0000000000000000e+00  0.0000000000000000e+00  0.0000000000000000e+00  0.0000000000000000e+00  0.0000000000000000e+00  0.0000000000000000e+00  0.0000000000000000e+00  4.5641584916330344e-02  8.2975244377508903e-02  8.9932352769508159e-02  6.2453607796670814e-02  4.5489049789363334e-03  2.7591344212775145e-02  1.5908408301890062e-01  1.1024608705252695e-01  8.6794368436248701e-03  -9.9486024851807558e-03  -3.0688104082620956e-02  -3.6170814499546483e-02  4.0904513688444957e-02  4.7584510075107680e-02  -2.8190984546844179e-04  -1.4064817876830570e-02  1.6947779109291797e-02  -1.1398796983181168e-02  -1.6844813948039709e-02  -1.1869220333617253e-02  0.0000000000000000e+00  8.2471828608190773e-02  1.3856524644134086e-01  1.4549694876956071e-01  9.7273778301214142e-02  2.2397987367051835e-02  -9.4404942997739494e-02  -3.8923992802251384e-01  -1.6856171791634769e-01  -3.4125794957674996e-02  -1.2829271035837427e-02  -7.0803109317081015e-03  -3.4026946806269371e-03  -3.8613938387478494e-02  1.6603507460187197e-02  4.6410303753934689e-03  -6.8978250763263665e-02  -1.0486790784848278e-01  -4.9283879362888749e-02  -4.0649318752196836e-02  -3.4800022193038765e-02  0.0000000000000000e+00  9.9336299190161112e-02  1.5976735845837528e-01  1.6520369770194063e-01  1.1267030968339044e-01  3.2663811324113230e-02  -3.6965708637040226e-02  -8.0103425278932869e-02  -5.1930969341167213e-02  -2.6241093347670250e-02  -4.9504461559500296e-03  2.0415935483285047e-02  3.9574883919396550e-02  4.3908785767980602e-02  3.3869334286555204e-02  -1.1106777137277818e-02  -5.4588839066966467e-02  -8.0274997660941122e-02  -6.8807177484503865e-02  -5.7312090553006095e-02  -5.1112588002354034e-02  0.0000000000000000e+00  1.0066275972561300e-01  1.5858810791253525e-01  1.6394415294864156e-01  1.1656869962589930e-01  4.2403553358464109e-02  -2.7184931078318333e-02  -6.1125843770655018e-02  -5.8127974837315799e-02  -2.9307694909583078e-02  4.1740003044190800e-03  3.4748086318285909e-02  5.9578482818134951e-02  6.5014010351499743e-02  4.2555693439141368e-02  -3.8073373647224571e-03  -5.1862700495106155e-02  -7.6884794692268610e-02  -7.6973864128356773e-02  -6.6977535645190128e-02  -6.0903508973078765e-02  0.0000000000000000e+00  9.2939021588501730e-02  1.4573982170505548e-01  1.5236838491021368e-01  1.1357619167348317e-01  5.0114083307580486e-02  -1.1517958852572424e-02  -4.5672356192820333e-02  -4.5713912319188005e-02  -2.1152144113143607e-02  1.2257566101075200e-02  4.4370794035369289e-02  6.7410256901295221e-02  6.9228433376599660e-02  4.2727039579918254e-02  -4.6034811644611474e-03  -5.0337262850127636e-02  -7.4408805855251656e-02  -7.6678434039716567e-02  -6.9345124919998474e-02  -6.4907144989904700e-02  0.0000000000000000e+00  8.1367848119698591e-02  1.2838485963349555e-01  1.3664037140373969e-01  1.0687131814226802e-01  5.5086361223231933e-02  3.0534171600547066e-03  -2.7497280490756490e-02  -3.0509246138771911e-02  -1.0897118998405677e-02  2.0214367667710575e-02  5.0797539294879741e-02  7.0757250464868748e-02  6.9421538246326436e-02  4.2180513536174122e-02  -2.0460016648702656e-03  -4.4903121101096323e-02  -6.8682742990825205e-02  -7.2927367640788165e-02  -6.7770683801174694e-02  -6.4681056665077605e-02  0.0000000000000000e+00  6.9156748157545675e-02  1.1053396382066168e-01  1.2016807829571301e-01  9.8415241265407488e-02  5.7501250209624440e-02  1.5051132618732687e-02  -1.1216532262937324e-02  -1.5424177518219805e-02  3.2937044817228645e-04  2.7481803417589129e-02  5.4649002606973113e-02  7.1257776631306946e-02  6.7955911588508611e-02  4.1582853053738530e-02  2.5715701049484576e-04  -3.9779126389888259e-02  -6.2299099387687448e-02  -6.7355046911100280e-02  -6.3776193929948849e-02  -6.1670386091524532e-02  0.0000000000000000e+00  5.7921903490816821e-02  9.4124223180429928e-02  1.0463977983897363e-01  8.9392125934731281e-02  5.7721096467117088e-02  2.3712480637691401e-02  1.7271435513460990e-03  -2.5464434350391148e-03  1.0071766577483520e-02  3.3152899939895307e-02  5.6534614872289786e-02  7.0078740808979662e-02  6.5656987106983200e-02  4.0746403822826134e-02  2.5717699291461322e-03  -3.4291640633330227e-02  -5.5467279339512530e-02  -6.0992076972947062e-02  -5.8570050189971905e-02  -5.7150686116150921e-02  0.0000000000000000e+00  4.8269638996143359e-02  7.9851842010301780e-02  9.0715933064637655e-02  8.0430292792411415e-02  5.6176988281433138e-02  2.9178516025461381e-02  1.1078892121473529e-02  7.2777066071492407e-03  1.7592983264233832e-02  3.7006213499055876e-02  5.6754330246303220e-02  6.7658235619409701e-02  6.2671669840785482e-02  3.9566466982425962e-02  4.6682160724245527e-03  -2.9047993410989934e-02  -4.8762959379934245e-02  -5.4411852496374223e-02  -5.2815151108014609e-02  -5.1850231068002343e-02  0.0000000000000000e+00  4.0250230958162547e-02  6.7743938064904932e-02  7.8488111759469723e-02  7.1809322663323252e-02  5.3291599032170338e-02  3.1905712555178954e-02  1.7137584487234642e-02  1.4027304082442012e-02  2.2646571745297089e-02  3.8932919631012995e-02  5.5476310185106230e-02  6.4209778178942786e-02  5.9049908311907970e-02  3.7961042159010590e-02  6.4088645016174414e-03  -2.4144937654618618e-02  -4.2316751051080188e-02  -4.7905316883200592e-02  -4.6910985689360862e-02  -4.6247894093981917e-02  0.0000000000000000e+00  3.3654365681303727e-02  5.7517335771286295e-02  6.7770673027516978e-02  6.3607974617353569e-02  4.9427965942039812e-02  3.2451254879706418e-02  2.0454997227091959e-02  1.8053398545532957e-02  2.5384890077753599e-02  3.9069498865538080e-02  5.2887170217091391e-02  5.9871931726868353e-02  5.4820528252493887e-02  3.5876664325157993e-02  7.6979985731245601e-03  -1.9694434217159738e-02  -3.6260680410689014e-02  -4.1642304341840838e-02  -4.1084899336129792e-02  -4.0624930461248279e-02  0.0000000000000000e+00  2.8186470296011863e-02  4.8786630036014460e-02  5.8275192414039098e-02  5.5802101246618670e-02  4.4874848112312321e-02  3.1346721093295157e-02  2.1625288528114083e-02  1.9850998416977933e-02  2.6148377197053305e-02  3.7656935629119662e-02  4.9175827051382695e-02  5.4767681360302925e-02  5.0032074204622794e-02  3.3299984859447074e-02  8.4856278971461724e-03  -1.5753275019792724e-02  -3.0650928141468407e-02  -3.5709660548512490e-02  -3.5467716876969375e-02  -3.5147610836513715e-02  0.0000000000000000e+00  2.3555241846418662e-02  4.1173606685740861e-02  4.9705696558157000e-02  4.8324496737279725e-02  3.9849393667133026e-02  2.9043410173919204e-02  2.1189535415176926e-02  1.9924455482152385e-02  2.5332199550063793e-02  3.4981298339145768e-02  4.4545672949078532e-02  4.9027128222574289e-02  4.4751556633363505e-02  3.0248043837854621e-02  8.7589501563886708e-03  -1.2344100451998651e-02  -2.5513994538942004e-02  -3.0151569442149681e-02  -3.0128620985235756e-02  -2.9905975767066741e-02  0.0000000000000000e+00  1.9513472665768482e-02  3.4356009430682150e-02  4.1803517002808994e-02  4.1098325390372635e-02  3.4508111260084934e-02  2.5897717048123648e-02  1.9596038730096861e-02  1.8720507705223901e-02  2.3313950021173490e-02  3.1326087519244962e-02  3.9194957692750915e-02  4.2777259614792736e-02  3.9053935832698908e-02  2.6760061047443575e-02  8.5359863252765823e-03  -9.4581071047012463e-03  -2.0846405900283266e-02  -2.4977823964832509e-02  -2.5095262373862524e-02  -2.4941248510994326e-02  0.0000000000000000e+00  1.5869280231319068e-02  2.8081642998546680e-02  3.4362477094552042e-02  3.4053580575904664e-02  2.8960079752747295e-02  2.2177002351172918e-02  1.7194061975488749e-02  1.6604089201543118e-02  2.0418335708915353e-02  2.6943599680558705e-02  3.3302093787810252e-02  3.6134749859711199e-02  3.3015520664954785e-02  2.2889448231755264e-02  7.8580460796787641e-03  -7.0604322012922296e-03  -1.6620645386922057e-02  -2.0173347740824812e-02  -2.0366363201243014e-02  -2.0260741508942300e-02  0.0000000000000000e+00  1.2482822698539665e-02  2.2164622889659799e-02  2.7228243686750388e-02  2.7133366542217652e-02  2.3279315187208958e-02  1.8074256926227144e-02  1.4243957468135308e-02  1.3857334570349787e-02  1.6906184603027560e-02  2.2042648843412168e-02  2.7017468144666462e-02  2.9200588899455385e-02  2.6708394190910287e-02  1.8697096281128023e-02  6.7832343997864964e-03  -5.0953944944264022e-03  -1.2789329613222796e-02  -1.5703085364795366e-02  -1.5918902568029986e-02  -1.5847368158746971e-02  0.0000000000000000e+00  9.2571563733254651e-03  1.6474132967250976e-02  2.0290523328740807e-02  2.0294691411313202e-02  1.7515095147098318e-02  1.3724865060027267e-02  1.0933656911691967e-02  1.0690024191879831e-02  1.2977325280641397e-02  1.6787343200836715e-02  2.0461727154273118e-02  2.2058566802511306e-02  2.0198025195664202e-02  1.4247254873677704e-02  5.3810657323507581e-03  -3.4918910684556496e-03  -9.2897445419721208e-03  -1.1516586384878612e-02  -1.1713699903225017e-02  -1.1666266347623898e-02  0.0000000000000000e+00  6.1277123514212484e-03  1.0920550028116387e-02  1.3472543688579339e-02  1.3506276571591652e-02  1.1699753882299803e-02  9.2222444891743340e-03  7.3966515832558184e-03  7.2551641424612040e-03  8.7809869068290521e-03  1.1302668242123420e-02  1.3728348348943100e-02  1.4776010048866939e-02  1.3542311978147847e-02  9.6044914729371718e-03  3.7279712247407916e-03  -2.1678620880578509e-03  -6.0472902607079122e-03  -7.5514194371356057e-03  -7.6993874164138264e-03  -7.6695686196410588e-03  0.0000000000000000e+00  3.0514277876200631e-03  5.4439728254824706e-03  6.7224127831625154e-03  6.7465437886468889e-03  5.8558278926780487e-03  4.6314286107264997e-03  3.7280136049851658e-03  3.6633594053832345e-03  4.4266335340512513e-03  5.6820553874796318e-03  6.8890747606179603e-03  7.4082937914533974e-03  6.7945346686763951e-03  4.8342759511603587e-03  1.9059890057543669e-03  -1.0345096433718014e-03  -2.9804842357279608e-03  -3.7382020904634869e-03  -3.8166312387790209e-03  -3.8015366801465562e-03  0.0000000000000000e+00  0.0000000000000000e+00  0.0000000000000000e+00  0.0000000000000000e+00  0.0000000000000000e+00  0.0000000000000000e+00  0.0000000000000000e+00  0.0000000000000000e+00  0.0000000000000000e+00  0.0000000000000000e+00  0.0000000000000000e+00  0.0000000000000000e+00  0.0000000000000000e+00  0.0000000000000000e+00  0.0000000000000000e+00  0.0000000000000000e+00  0.0000000000000000e+00  0.0000000000000000e+00  0.0000000000000000e+00  0.0000000000000000e+00  0.0000000000000000e+00  </DataArray> 
</PointData> 
</Piece>
</UnstructuredGrid>
</VTKFile>