<?xml version="1.0"?>
<VTKFile type="UnstructuredGrid"  version="0.1"  >
<UnstructuredGrid>
<Piece  NumberOfPoints="21" NumberOfCells="20">
<Points>
<DataArray  type="Float64"  NumberOfComponents="3"  format="ascii">0 0 0  0.05 0 0  0.1 0 0  0.15 0 0  0.2 0 0  0.25 0 0  0.3 0 0  0.35 0 0  0.4 0 0  0.45 0 0  0.5 0 0  0.55 0 0  0.6 0 0  0.65 0 0  0.7 0 0  0.75 0 0  0.8 0 0  0.85 0 0  0.9 0 0  0.95 0 0  1 0 0  </DataArray>
</Points>
<Cells>
<DataArray  type="UInt32"  Name="connectivity"  format="ascii">0 1  1 2  2 3  3 4  4 5  5 6  6 7  7 8  8 9  9 10  10 11  11 12  12 13  13 14  14 15  15 16  16 17  17 18  18 19  19 20  </DataArray>
<DataArray  type="UInt32"  Name="offsets"  format="ascii">2 4 6 8 10 12 14 16 18 20 22 24 26 28 30 32 34 36 38 40 </DataArray>
<DataArray  type="UInt8"  Name="types"  format="ascii">3 3 3 3 3 3 3 3 3 3 3 3 3 3 3 3 3 3 3 3 </DataArray>
</Cells>
<PointData  Scalars="u"> 
<DataArray  type="Float64"  Name="u"  format="ascii">2.4312064334158398e-09  1.8891543254023108e-02  6.8682235614169598e-02  1.3040668181933276e-01  1.8040523475851925e-01  1.9951597513291794e-01  1.8045435286865319e-01  1.3047603976492436e-01  6.8690792692613772e-02  1.8713601355160706e-02  -3.7770392199106185e-04  1.8713878523344499e-02  6.8737419262767677e-02  1.3061312722089452e-01  1.8065711003871882e-01  1.9978048502003290e-01  1.8071649143102197e-01  1.3075776875615383e-01  6.9000729990058421e-02  1.9050730665623728e-02  2.4312064309609716e-09  </DataArray> 
</PointData> 
</Piece>
</UnstructuredGrid>
</VTKFile>