<?xml version="1.0"?>
<VTKFile type="UnstructuredGrid"  version="0.1"  >
<UnstructuredGrid>
<Piece  NumberOfPoints="21" NumberOfCells="20">
<Points>
<DataArray  type="Float64"  NumberOfComponents="3"  format="ascii">0 0 0  0.05 0 0  0.1 0 0  0.15 0 0  0.2 0 0  0.25 0 0  0.3 0 0  0.35 0 0  0.4 0 0  0.45 0 0  0.5 0 0  0.55 0 0  0.6 0 0  0.65 0 0  0.7 0 0  0.75 0 0  0.8 0 0  0.85 0 0  0.9 0 0  0.95 0 0  1 0 0  </DataArray>
</Points>
<Cells>
<DataArray  type="UInt32"  Name="connectivity"  format="ascii">0 1  1 2  2 3  3 4  4 5  5 6  6 7  7 8  8 9  9 10  10 11  11 12  12 13  13 14  14 15  15 16  16 17  17 18  18 19  19 20  </DataArray>
<DataArray  type="UInt32"  Name="offsets"  format="ascii">2 4 6 8 10 12 14 16 18 20 22 24 26 28 30 32 34 36 38 40 </DataArray>
<DataArray  type="UInt8"  Name="types"  format="ascii">3 3 3 3 3 3 3 3 3 3 3 3 3 3 3 3 3 3 3 3 </DataArray>
</Cells>
<PointData  Scalars="u"> 
<DataArray  type="Float64"  Name="u"  format="ascii">1.2384701252980931e-04  6.0708811579934371e-03  4.2732421220530101e-02  9.2846214659196610e-02  1.2861035844604973e-01  1.3684867854380786e-01  1.1386000708733708e-01  5.8681990482923573e-02  7.5713231154764141e-04  -4.3098335231046378e-02  -6.1026526371742378e-02  -4.4697468353241697e-02  -2.3047778639940369e-03  5.8577831842543907e-02  1.1343087136844812e-01  1.3423725808300943e-01  1.1165325543672674e-01  5.1168583182566472e-02  7.3335562027487247e-03  -8.7795190897572619e-03  1.2384701252979600e-04  </DataArray> 
</PointData> 
</Piece>
</UnstructuredGrid>
</VTKFile>