<?xml version="1.0"?>
<VTKFile type="UnstructuredGrid"  version="0.1"  >
<UnstructuredGrid>
<Piece  NumberOfPoints="21" NumberOfCells="20">
<Points>
<DataArray  type="Float64"  NumberOfComponents="3"  format="ascii">0 0 0  0.05 0 0  0.1 0 0  0.15 0 0  0.2 0 0  0.25 0 0  0.3 0 0  0.35 0 0  0.4 0 0  0.45 0 0  0.5 0 0  0.55 0 0  0.6 0 0  0.65 0 0  0.7 0 0  0.75 0 0  0.8 0 0  0.85 0 0  0.9 0 0  0.95 0 0  1 0 0  </DataArray>
</Points>
<Cells>
<DataArray  type="UInt32"  Name="connectivity"  format="ascii">0 1  1 2  2 3  3 4  4 5  5 6  6 7  7 8  8 9  9 10  10 11  11 12  12 13  13 14  14 15  15 16  16 17  17 18  18 19  19 20  </DataArray>
<DataArray  type="UInt32"  Name="offsets"  format="ascii">2 4 6 8 10 12 14 16 18 20 22 24 26 28 30 32 34 36 38 40 </DataArray>
<DataArray  type="UInt8"  Name="types"  format="ascii">3 3 3 3 3 3 3 3 3 3 3 3 3 3 3 3 3 3 3 3 </DataArray>
</Cells>
<PointData  Scalars="u"> 
<DataArray  type="Float64"  Name="u"  format="ascii">6.7537417156181719e-07  1.4516940426101363e-02  5.9952079352085123e-02  1.1908399643699114e-01  1.6757503506292176e-01  1.8563584822793319e-01  1.6630232279374688e-01  1.1587257155390465e-01  5.3047699931744116e-02  1.2643921965432743e-03  -2.0787811081997485e-02  -6.7597696837720144e-03  3.5953493005532869e-02  9.8201801688364718e-02  1.5231725528750861e-01  1.7240179440072059e-01  1.5111370598426949e-01  9.5075587884637436e-02  3.9471941688382965e-02  5.6111967237494230e-03  6.7537417156232721e-07  </DataArray> 
</PointData> 
</Piece>
</UnstructuredGrid>
</VTKFile>