<?xml version="1.0"?>
<VTKFile type="UnstructuredGrid"  version="0.1"  >
<UnstructuredGrid>
<Piece  NumberOfPoints="21" NumberOfCells="20">
<Points>
<DataArray  type="Float64"  NumberOfComponents="3"  format="ascii">0 0 0  0.05 0 0  0.1 0 0  0.15 0 0  0.2 0 0  0.25 0 0  0.3 0 0  0.35 0 0  0.4 0 0  0.45 0 0  0.5 0 0  0.55 0 0  0.6 0 0  0.65 0 0  0.7 0 0  0.75 0 0  0.8 0 0  0.85 0 0  0.9 0 0  0.95 0 0  1 0 0  </DataArray>
</Points>
<Cells>
<DataArray  type="UInt32"  Name="connectivity"  format="ascii">0 1  1 2  2 3  3 4  4 5  5 6  6 7  7 8  8 9  9 10  10 11  11 12  12 13  13 14  14 15  15 16  16 17  17 18  18 19  19 20  </DataArray>
<DataArray  type="UInt32"  Name="offsets"  format="ascii">2 4 6 8 10 12 14 16 18 20 22 24 26 28 30 32 34 36 38 40 </DataArray>
<DataArray  type="UInt8"  Name="types"  format="ascii">3 3 3 3 3 3 3 3 3 3 3 3 3 3 3 3 3 3 3 3 </DataArray>
</Cells>
<PointData  Scalars="u"> 
<DataArray  type="Float64"  Name="u"  format="ascii">3.8077814635742789e-07  1.5105560778081647e-02  6.1153367865133382e-02  1.2073321327943556e-01  1.6955362308405889e-01  1.8798130270367275e-01  1.6906595241035557e-01  1.1913709060859104e-01  5.6882968445082234e-02  5.7421773100622773e-03  -1.5529650820393521e-02  -5.4189070307750719e-04  4.3413834195384950e-02  1.0720873167850906e-01  1.6303525390274096e-01  1.8604636007244613e-01  1.7023978912102711e-01  1.2312559997275972e-01  6.4042360843548682e-02  1.6643075569320143e-02  3.8077814636268855e-07  </DataArray> 
</PointData> 
</Piece>
</UnstructuredGrid>
</VTKFile>