<?xml version="1.0"?>
<VTKFile type="UnstructuredGrid"  version="0.1"  >
<UnstructuredGrid>
<Piece  NumberOfPoints="21" NumberOfCells="20">
<Points>
<DataArray  type="Float64"  NumberOfComponents="3"  format="ascii">0 0 0  0.05 0 0  0.1 0 0  0.15 0 0  0.2 0 0  0.25 0 0  0.3 0 0  0.35 0 0  0.4 0 0  0.45 0 0  0.5 0 0  0.55 0 0  0.6 0 0  0.65 0 0  0.7 0 0  0.75 0 0  0.8 0 0  0.85 0 0  0.9 0 0  0.95 0 0  1 0 0  </DataArray>
</Points>
<Cells>
<DataArray  type="UInt32"  Name="connectivity"  format="ascii">0 1  1 2  2 3  3 4  4 5  5 6  6 7  7 8  8 9  9 10  10 11  11 12  12 13  13 14  14 15  15 16  16 17  17 18  18 19  19 20  </DataArray>
<DataArray  type="UInt32"  Name="offsets"  format="ascii">2 4 6 8 10 12 14 16 18 20 22 24 26 28 30 32 34 36 38 40 </DataArray>
<DataArray  type="UInt8"  Name="types"  format="ascii">3 3 3 3 3 3 3 3 3 3 3 3 3 3 3 3 3 3 3 3 </DataArray>
</Cells>
<PointData  Scalars="u"> 
<DataArray  type="Float64"  Name="u"  format="ascii">5.2540760125295297e-07  1.4992507512749500e-02  6.0921070128878256e-02  1.2044349627986427e-01  1.6925521482420636e-01  1.8767272167559179e-01  1.6874288958499037e-01  1.1878300270433413e-01  5.6491142280343208e-02  5.3124550971670294e-03  -1.6015394989874279e-02  -1.1026785316260016e-03  4.2738895277561598e-02  1.0643603237340246e-01  1.6237215040973579e-01  1.8544824151631623e-01  1.6960708406153108e-01  1.2238081082145444e-01  6.3441627708597043e-02  1.6372977057568103e-02  5.2540760125966094e-07  </DataArray> 
</PointData> 
</Piece>
</UnstructuredGrid>
</VTKFile>