<?xml version="1.0"?>
<VTKFile type="UnstructuredGrid"  version="0.1"  >
<UnstructuredGrid>
<Piece  NumberOfPoints="441" NumberOfCells="800">
<Points>
<DataArray  type="Float64"  NumberOfComponents="3"  format="ascii">0 0 0  0.05 0 0  0.1 0 0  0.15 0 0  0.2 0 0  0.25 0 0  0.3 0 0  0.35 0 0  0.4 0 0  0.45 0 0  0.5 0 0  0.55 0 0  0.6 0 0  0.65 0 0  0.7 0 0  0.75 0 0  0.8 0 0  0.85 0 0  0.9 0 0  0.95 0 0  1 0 0  0 0.05 0  0.05 0.05 0  0.1 0.05 0  0.15 0.05 0  0.2 0.05 0  0.25 0.05 0  0.3 0.05 0  0.35 0.05 0  0.4 0.05 0  0.45 0.05 0  0.5 0.05 0  0.55 0.05 0  0.6 0.05 0  0.65 0.05 0  0.7 0.05 0  0.75 0.05 0  0.8 0.05 0  0.85 0.05 0  0.9 0.05 0  0.95 0.05 0  1 0.05 0  0 0.1 0  0.05 0.1 0  0.1 0.1 0  0.15 0.1 0  0.2 0.1 0  0.25 0.1 0  0.3 0.1 0  0.35 0.1 0  0.4 0.1 0  0.45 0.1 0  0.5 0.1 0  0.55 0.1 0  0.6 0.1 0  0.65 0.1 0  0.7 0.1 0  0.75 0.1 0  0.8 0.1 0  0.85 0.1 0  0.9 0.1 0  0.95 0.1 0  1 0.1 0  0 0.15 0  0.05 0.15 0  0.1 0.15 0  0.15 0.15 0  0.2 0.15 0  0.25 0.15 0  0.3 0.15 0  0.35 0.15 0  0.4 0.15 0  0.45 0.15 0  0.5 0.15 0  0.55 0.15 0  0.6 0.15 0  0.65 0.15 0  0.7 0.15 0  0.75 0.15 0  0.8 0.15 0  0.85 0.15 0  0.9 0.15 0  0.95 0.15 0  1 0.15 0  0 0.2 0  0.05 0.2 0  0.1 0.2 0  0.15 0.2 0  0.2 0.2 0  0.25 0.2 0  0.3 0.2 0  0.35 0.2 0  0.4 0.2 0  0.45 0.2 0  0.5 0.2 0  0.55 0.2 0  0.6 0.2 0  0.65 0.2 0  0.7 0.2 0  0.75 0.2 0  0.8 0.2 0  0.85 0.2 0  0.9 0.2 0  0.95 0.2 0  1 0.2 0  0 0.25 0  0.05 0.25 0  0.1 0.25 0  0.15 0.25 0  0.2 0.25 0  0.25 0.25 0  0.3 0.25 0  0.35 0.25 0  0.4 0.25 0  0.45 0.25 0  0.5 0.25 0  0.55 0.25 0  0.6 0.25 0  0.65 0.25 0  0.7 0.25 0  0.75 0.25 0  0.8 0.25 0  0.85 0.25 0  0.9 0.25 0  0.95 0.25 0  1 0.25 0  0 0.3 0  0.05 0.3 0  0.1 0.3 0  0.15 0.3 0  0.2 0.3 0  0.25 0.3 0  0.3 0.3 0  0.35 0.3 0  0.4 0.3 0  0.45 0.3 0  0.5 0.3 0  0.55 0.3 0  0.6 0.3 0  0.65 0.3 0  0.7 0.3 0  0.75 0.3 0  0.8 0.3 0  0.85 0.3 0  0.9 0.3 0  0.95 0.3 0  1 0.3 0  0 0.35 0  0.05 0.35 0  0.1 0.35 0  0.15 0.35 0  0.2 0.35 0  0.25 0.35 0  0.3 0.35 0  0.35 0.35 0  0.4 0.35 0  0.45 0.35 0  0.5 0.35 0  0.55 0.35 0  0.6 0.35 0  0.65 0.35 0  0.7 0.35 0  0.75 0.35 0  0.8 0.35 0  0.85 0.35 0  0.9 0.35 0  0.95 0.35 0  1 0.35 0  0 0.4 0  0.05 0.4 0  0.1 0.4 0  0.15 0.4 0  0.2 0.4 0  0.25 0.4 0  0.3 0.4 0  0.35 0.4 0  0.4 0.4 0  0.45 0.4 0  0.5 0.4 0  0.55 0.4 0  0.6 0.4 0  0.65 0.4 0  0.7 0.4 0  0.75 0.4 0  0.8 0.4 0  0.85 0.4 0  0.9 0.4 0  0.95 0.4 0  1 0.4 0  0 0.45 0  0.05 0.45 0  0.1 0.45 0  0.15 0.45 0  0.2 0.45 0  0.25 0.45 0  0.3 0.45 0  0.35 0.45 0  0.4 0.45 0  0.45 0.45 0  0.5 0.45 0  0.55 0.45 0  0.6 0.45 0  0.65 0.45 0  0.7 0.45 0  0.75 0.45 0  0.8 0.45 0  0.85 0.45 0  0.9 0.45 0  0.95 0.45 0  1 0.45 0  0 0.5 0  0.05 0.5 0  0.1 0.5 0  0.15 0.5 0  0.2 0.5 0  0.25 0.5 0  0.3 0.5 0  0.35 0.5 0  0.4 0.5 0  0.45 0.5 0  0.5 0.5 0  0.55 0.5 0  0.6 0.5 0  0.65 0.5 0  0.7 0.5 0  0.75 0.5 0  0.8 0.5 0  0.85 0.5 0  0.9 0.5 0  0.95 0.5 0  1 0.5 0  0 0.55 0  0.05 0.55 0  0.1 0.55 0  0.15 0.55 0  0.2 0.55 0  0.25 0.55 0  0.3 0.55 0  0.35 0.55 0  0.4 0.55 0  0.45 0.55 0  0.5 0.55 0  0.55 0.55 0  0.6 0.55 0  0.65 0.55 0  0.7 0.55 0  0.75 0.55 0  0.8 0.55 0  0.85 0.55 0  0.9 0.55 0  0.95 0.55 0  1 0.55 0  0 0.6 0  0.05 0.6 0  0.1 0.6 0  0.15 0.6 0  0.2 0.6 0  0.25 0.6 0  0.3 0.6 0  0.35 0.6 0  0.4 0.6 0  0.45 0.6 0  0.5 0.6 0  0.55 0.6 0  0.6 0.6 0  0.65 0.6 0  0.7 0.6 0  0.75 0.6 0  0.8 0.6 0  0.85 0.6 0  0.9 0.6 0  0.95 0.6 0  1 0.6 0  0 0.65 0  0.05 0.65 0  0.1 0.65 0  0.15 0.65 0  0.2 0.65 0  0.25 0.65 0  0.3 0.65 0  0.35 0.65 0  0.4 0.65 0  0.45 0.65 0  0.5 0.65 0  0.55 0.65 0  0.6 0.65 0  0.65 0.65 0  0.7 0.65 0  0.75 0.65 0  0.8 0.65 0  0.85 0.65 0  0.9 0.65 0  0.95 0.65 0  1 0.65 0  0 0.7 0  0.05 0.7 0  0.1 0.7 0  0.15 0.7 0  0.2 0.7 0  0.25 0.7 0  0.3 0.7 0  0.35 0.7 0  0.4 0.7 0  0.45 0.7 0  0.5 0.7 0  0.55 0.7 0  0.6 0.7 0  0.65 0.7 0  0.7 0.7 0  0.75 0.7 0  0.8 0.7 0  0.85 0.7 0  0.9 0.7 0  0.95 0.7 0  1 0.7 0  0 0.75 0  0.05 0.75 0  0.1 0.75 0  0.15 0.75 0  0.2 0.75 0  0.25 0.75 0  0.3 0.75 0  0.35 0.75 0  0.4 0.75 0  0.45 0.75 0  0.5 0.75 0  0.55 0.75 0  0.6 0.75 0  0.65 0.75 0  0.7 0.75 0  0.75 0.75 0  0.8 0.75 0  0.85 0.75 0  0.9 0.75 0  0.95 0.75 0  1 0.75 0  0 0.8 0  0.05 0.8 0  0.1 0.8 0  0.15 0.8 0  0.2 0.8 0  0.25 0.8 0  0.3 0.8 0  0.35 0.8 0  0.4 0.8 0  0.45 0.8 0  0.5 0.8 0  0.55 0.8 0  0.6 0.8 0  0.65 0.8 0  0.7 0.8 0  0.75 0.8 0  0.8 0.8 0  0.85 0.8 0  0.9 0.8 0  0.95 0.8 0  1 0.8 0  0 0.85 0  0.05 0.85 0  0.1 0.85 0  0.15 0.85 0  0.2 0.85 0  0.25 0.85 0  0.3 0.85 0  0.35 0.85 0  0.4 0.85 0  0.45 0.85 0  0.5 0.85 0  0.55 0.85 0  0.6 0.85 0  0.65 0.85 0  0.7 0.85 0  0.75 0.85 0  0.8 0.85 0  0.85 0.85 0  0.9 0.85 0  0.95 0.85 0  1 0.85 0  0 0.9 0  0.05 0.9 0  0.1 0.9 0  0.15 0.9 0  0.2 0.9 0  0.25 0.9 0  0.3 0.9 0  0.35 0.9 0  0.4 0.9 0  0.45 0.9 0  0.5 0.9 0  0.55 0.9 0  0.6 0.9 0  0.65 0.9 0  0.7 0.9 0  0.75 0.9 0  0.8 0.9 0  0.85 0.9 0  0.9 0.9 0  0.95 0.9 0  1 0.9 0  0 0.95 0  0.05 0.95 0  0.1 0.95 0  0.15 0.95 0  0.2 0.95 0  0.25 0.95 0  0.3 0.95 0  0.35 0.95 0  0.4 0.95 0  0.45 0.95 0  0.5 0.95 0  0.55 0.95 0  0.6 0.95 0  0.65 0.95 0  0.7 0.95 0  0.75 0.95 0  0.8 0.95 0  0.85 0.95 0  0.9 0.95 0  0.95 0.95 0  1 0.95 0  0 1 0  0.05 1 0  0.1 1 0  0.15 1 0  0.2 1 0  0.25 1 0  0.3 1 0  0.35 1 0  0.4 1 0  0.45 1 0  0.5 1 0  0.55 1 0  0.6 1 0  0.65 1 0  0.7 1 0  0.75 1 0  0.8 1 0  0.85 1 0  0.9 1 0  0.95 1 0  1 1 0  </DataArray>
</Points>
<Cells>
[...]
<PointData  Scalars="u"> 
<DataArray  type="Float64"  Name="u"  format="ascii">4.7252014672419183e+00  1.6375392707718315e+00  -3.2116165815447040e-01  -1.3611269525584948e+00  -2.0915033336061257e+00  -2.5716171549202231e+00  -2.8029010664982481e+00  -2.8373184219457994e+00  -2.7238205957457482e+00  -2.5059138124560096e+00  -2.2203449315436052e+00  -1.8956205496725755e+00  -1.5513400733426814e+00  -1.1972044925078977e+00  -8.3194163829195455e-01  -4.3997176523757997e-01  7.1250472869835097e-03  5.3043932742747446e-01  1.1269459182207686e+00  1.3099837558328684e+00  4.4686686669245945e-01  4.7760057926138151e+00  2.4149750732808846e+00  -1.3273885961566093e-01  -1.2190453561936812e+00  -1.9792896886727249e+00  -2.4041983231802933e+00  -2.5890957721841255e+00  -2.6007661984950605e+00  -2.4880311428263053e+00  -2.2898822709167774e+00  -2.0364278478782265e+00  -1.7496885217991598e+00  -1.4442565258545628e+00  -1.1274133751194877e+00  -7.9892039280540039e-01  -4.5069708233471117e-01  -6.9996269283996271e-02  3.4948771473743084e-01  7.8450978368090185e-01  1.0084907974711648e+00  7.9675428295675943e-01  3.6500232876251837e+00  2.2170430899703444e+00  -2.9611613225488043e-01  -1.3291804685747395e+00  -1.9914168128531136e+00  -2.3193681979189393e+00  -2.4446785002926257e+00  -2.4252729534938937e+00  -2.3057370401348347e+00  -2.1184912374452272e+00  -1.8871768135901339e+00  -1.6286212285659349e+00  -1.3539255333085942e+00  -1.0689413344041740e+00  -7.7452510123616436e-01  -4.6660124604387482e-01  -1.3744810784703848e-01  2.1807238462690082e-01  6.0693142521475318e-01  8.9638594307258834e-01  9.5659590655803339e-01  2.6906240261508731e+00  1.6485980825727455e+00  -5.7440073334699659e-01  -1.4839956932834850e+00  -2.0275626717463555e+00  -2.2686809580142149e+00  -2.3384465080620700e+00  -2.2887839982221623e+00  -2.1605399068142503e+00  -1.9795813839262719e+00  -1.7643443936116476e+00  -1.5276774514546634e+00  -1.2780338715057633e+00  -1.0200357796314514e+00  -7.5468484345561182e-01  -4.7898761038740933e-01  -1.8585128900590325e-01  1.3404479238487066e-01  4.9923307876580680e-01  8.1130536475825943e-01  9.4770394878978126e-01  1.9641000712688432e+00  1.0435843515451904e+00  -8.5379571321835901e-01  -1.6363032178195531e+00  -2.0681702822662902e+00  -2.2339099090818260e+00  -2.2546860237408470e+00  -2.1791798255515920e+00  -2.0427834619746714e+00  -1.8658692929949345e+00  -1.6629175956335549e+00  -1.4436611502545749e+00  -1.2144573910871075e+00  -9.7876888039941123e-01  -7.3719624265678063e-01  -4.8677393187213541e-01  -2.2008796808656869e-01  7.4009407840505262e-02  4.1706255234785006e-01  7.2708354576627676e-01  8.9467992205182645e-01  1.3572761752802744e+00  5.2479422565436318e-01  -1.1032262235330303e+00  -1.7598621357591304e+00  -2.0939229866397246e+00  -2.1990378362482565e+00  -2.1816140958142407e+00  -2.0866623289963950e+00  -1.9442286279446441e+00  -1.7708749980416250e+00  -1.5780469961837467e+00  -1.3730949957560303e+00  -1.1607471237346310e+00  -9.4344008613568298e-01  -7.2123997099080261e-01  -4.9100084809622174e-01  -2.4530561993962918e-01  2.7144469705266898e-02  3.4705832538636167e-01  6.4397339922724761e-01  8.1942693181977877e-01  8.3355428739021042e-01  9.4755288571575322e-02  -1.3056866115283232e+00  -1.8468339940905152e+00  -2.1020409539800560e+00  -2.1599997254201200e+00  -2.1140545947953209e+00  -2.0053633062872267e+00  -1.8594381020573194e+00  -1.6899820496276232e+00  -1.5060439479204926e+00  -1.3132142026876490e+00  -1.1149759232037533e+00  -9.1294271844640662e-01  -7.0674272807744432e-01  -4.9318600020336489e-01  -2.6526711410348525e-01  -1.2490615690018213e-02  2.8369718601959781e-01  5.6225891479267842e-01  7.3621305690391659e-01  3.7591900571117171e-01  -2.6723811984780743e-01  -1.4621164157485713e+00  -1.9026281307755892e+00  -2.0940195870143206e+00  -2.1152750801778493e+00  -2.0489581056990129e+00  -1.9315372398114157e+00  -1.7846572072631608e+00  -1.6197431642579883e+00  -1.4440180184974836e+00  -1.2617880356649407e+00  -1.0756080374366981e+00  -8.8649502156882876e-01  -6.9380850253204218e-01  -4.9449743366238247e-01  -2.8224316905785518e-01  -4.7749584706639904e-02  2.2501917270458871e-01  4.8342090065393778e-01  6.5177348929263423e-01  -2.8565315779961877e-02  -5.7522067207938921e-01  -1.5811814245895894e+00  -1.9341283173120609e+00  -2.0727565725943613e+00  -2.0658153553227461e+00  -1.9855051854829708e+00  -1.8632664231428548e+00  -1.7175139134533717e+00  -1.5577777139441418e+00  -1.3898722890302564e+00  -1.2171489713940606e+00  -1.0414934245816709e+00  -8.6352815235080682e-01  -6.8250281665664958e-01  -4.9564785538321443e-01  -2.9746642652105598e-01  -7.9981644449235390e-02  1.7033440796240815e-01  4.0848794746687772e-01  5.6960350226754686e-01  -3.8792187319922933e-01  -8.3964879782231883e-01  -1.6717807327246490e+00  -1.9476075047969070e+00  -2.0420354490519155e+00  -2.0134232683488538e+00  -1.9237354396437458e+00  -1.7995919087040007e+00  -1.6565510339807810e+00  -1.5024928838082332e+00  -1.3421223032817473e+00  -1.1780745699629360e+00  -1.0117671284667646e+00  -8.4358522616892007e-01  -6.7279087517878211e-01  -4.9698440113340403e-01  -3.1153306813177584e-01  -1.0976810804297096e-01  1.1947699123118759e-01  3.3820595101180828e-01  4.9168520005159150e-01  -7.0747203949227833e-01  -1.0681395846255470e+00  -1.7409132537801137e+00  -1.9484303370489919e+00  -2.0054237307378919e+00  -1.9599660269649755e+00  -1.8642048235363313e+00  -1.7402300880075054e+00  -1.6009749105562021e+00  -1.4528828350901877e+00  -1.2997610174073240e+00  -1.1436973946209745e+00  -9.8578587768247528e-01  -8.2628767335401709e-01  -6.6456008734740579e-01  -4.9861661315212985e-01  -3.2467601358082648e-01  -1.3730812948731272e-01  7.2485898350951178e-02  2.7309034862197101e-01  4.1913905924405276e-01  -9.9082963495998500e-01  -1.2660574269677052e+00  -1.7939044022670116e+00  -1.9409062770360694e+00  -1.9659141402834690e+00  -1.9072012365772020e+00  -1.8076892699913036e+00  -1.6852469626024633e+00  -1.5504044971681079e+00  -1.4083471128305254e+00  -1.2621301701949939e+00  -1.1134151765870681e+00  -9.6307385295951276e-01  -8.1132002456080943e-01  -6.5765572980997600e-01  -5.0051827467421928e-01  -3.3693377129466034e-01  -1.6261549246522519e-01  2.9476331398408193e-02  2.1350063315654050e-01  3.5262629518233268e-01  -1.2404645638565250e+00  -1.4371908208728985e+00  -1.8346909854655358e+00  -1.9283350066262026e+00  -1.9259159494839224e+00  -1.8566664051803068e+00  -1.7549898880256403e+00  -1.6348917027452941e+00  -1.5047242923640747e+00  -1.3685616486542105e+00  -1.2288192031651195e+00  -1.0868206752146325e+00  -9.4328424163556135e-01  -7.9842465777438321e-01  -6.5191265321529190e-01  -5.0259751267520869e-01  -3.4825010868894662e-01  -1.8562053944517445e-01  -9.4161377684016927e-03  1.5969420160941655e-01  2.9254786576338843e-01  -1.4580861071994242e+00  -1.5842115214856205e+00  -1.8661375789389567e+00  -1.9132002396142662e+00  -1.8873218920261012e+00  -1.8096414221158932e+00  -1.7068514887298527e+00  -1.5894933490649150e+00  -1.4639699680965972e+00  -1.3333782932739857e+00  -1.1995867876735256e+00  -1.0636467409240200e+00  -9.2616888791894414e-01  -7.8739686922722307e-01  -6.4717575262337246e-01  -5.0473966579933038e-01  -3.5853042989369660e-01  -2.0622290698040496e-01  -4.4059326680489737e-02  1.1186130385779684e-01  2.3915801684952459e-01  -1.6448837139082932e+00  -1.7090037917355645e+00  -1.8903140664728277e+00  -1.8973479237268236e+00  -1.8515887528319619e+00  -1.7671602091531740e+00  -1.6639263471807344e+00  -1.5493947111042612e+00  -1.4282550825425901e+00  -1.3027572548385160e+00  -1.1743039449258708e+00  -1.0437247795891043e+00  -9.1155438877620587e-01  -7.7807895948405192e-01  -6.4331077635272360e-01  -5.0683123919791984e-01  -3.6767213768766249e-01  -2.2431813893491528e-01  -7.4334348277651438e-02  7.0146995829793973e-02  1.9262687398925699e-01  -1.8016918972859532e+00  -1.8128945648718791e+00  -1.9087066498263627e+00  -1.8821360633165567e+00  -1.8198217637482694e+00  -1.7300397517383606e+00  -1.6267617350953205e+00  -1.5149161889324201e+00  -1.3977250028742563e+00  -1.2767198462056484e+00  -1.1529127331762032e+00  -1.0269537430783231e+00  -8.9932299861404863e-01  -7.7035324673403072e-01  -6.4020814762120948e-01  -5.0877171979453106e-01  -3.7558022344725944e-01  -2.3981099330032551e-01  -1.0013940317312796e-01  3.4664422142524173e-02  1.5307497632509129e-01  -1.9290770433742519e+00  -1.8968146637363872e+00  -1.9223751209764732e+00  -1.8685523680392497e+00  -1.7928470121032758e+00  -1.6989114439650981e+00  -1.5958006893056753e+00  -1.4863370337024990e+00  -1.3725278559212171e+00  -1.2553168010687772e+00  -1.1353974081623908e+00  -1.0132772005151320e+00  -8.8939722734065629e-01  -7.6413449604120876e-01  -6.3778231127289686e-01  -5.1047812727538622e-01  -3.8217361302255676e-01  -2.5261928344815693e-01  -1.2138917215672106e-01  5.5027371387825407e-03  1.2059171102879991e-01  -2.0274561866468348e+00  -1.9614207315349825e+00  -1.9320565892295418e+00  -1.8573058769255033e+00  -1.7712703309171678e+00  -1.6742516614334717e+00  -1.5713898225192640e+00  -1.4638877732966609e+00  -1.3527981070137651e+00  -1.2386085657504362e+00  -1.1217652767352959e+00  -1.0026673700683815e+00  -8.8172850246123868e-01  -7.5936356279349804e-01  -6.3597001843229439e-01  -5.1188641195769102e-01  -3.8738755531673813e-01  -2.6267919069179363e-01  -1.3802122417329227e-01  -1.7270874743077515e-02  9.5245313664750822e-02  -2.0972393071497422e+00  -2.0070570090008739e+00  -1.9382805759858033e+00  -1.8488892844867804e+00  -1.7555220655118460e+00  -1.6564030525477480e+00  -1.5537855421616875e+00  -1.4477441120470773e+00  -1.3386439582555703e+00  -1.2266495321832263e+00  -1.1120308192804906e+00  -9.9511100614973769e-01  -8.7628584110227747e-01  -7.5599907881054007e-01  -6.3472456465795490e-01  -5.1294689204288324e-01  -3.9117126182241063e-01  -2.6994062285994697e-01  -1.4997338092877122e-01  -3.3588560546557233e-02  7.7088407503987572e-02  -2.1369509997439406e+00  -2.0342760355240355e+00  -1.9413263048716054e+00  -1.8436444643833285e+00  -1.7458781155618537e+00  -1.6456097603159847e+00  -1.5431688135150725e+00  -1.4380395177896645e+00  -1.3301527180926005e+00  -1.2194908237406492e+00  -1.1062167611731606e+00  -9.9061046528641905e-01  -8.7305781340729594e-01  -7.5402111436175079e-01  -6.3402154953398204e-01  -5.1363290352321689e-01  -3.9349953325614473e-01  -2.7437542231615747e-01  -1.5722524503843846e-01  -4.3481130734729943e-02  6.6137538327865189e-02  -2.1542993686273832e+00  -2.0428481584041243e+00  -1.9417176496832762e+00  -1.8416592441566151e+00  -1.7425916145862026e+00  -1.6419597435898641e+00  -1.5396359958553565e+00  -1.4348184090123517e+00  -1.3273483969254256e+00  -1.2171339268883099e+00  -1.1043105259872614e+00  -9.8914284205002778e-01  -8.7201501940637005e-01  -7.5339609514948380e-01  -6.3382422007996086e-01  -5.1390404488462615e-01  -3.9432835578386838e-01  -2.7592717312210430e-01  -1.5973079971789506e-01  -4.6810408271137173e-02  6.2615270143666732e-02  </DataArray> 
</PointData> 
</Piece>
</UnstructuredGrid>
</VTKFile>