<?xml version="1.0"?>
<VTKFile type="UnstructuredGrid"  version="0.1"  >
<UnstructuredGrid>
<Piece  NumberOfPoints="441" NumberOfCells="800">
<Points>
<DataArray  type="Float64"  NumberOfComponents="3"  format="ascii">0 0 0  0.05 0 0  0.1 0 0  0.15 0 0  0.2 0 0  0.25 0 0  0.3 0 0  0.35 0 0  0.4 0 0  0.45 0 0  0.5 0 0  0.55 0 0  0.6 0 0  0.65 0 0  0.7 0 0  0.75 0 0  0.8 0 0  0.85 0 0  0.9 0 0  0.95 0 0  1 0 0  0 0.05 0  0.05 0.05 0  0.1 0.05 0  0.15 0.05 0  0.2 0.05 0  0.25 0.05 0  0.3 0.05 0  0.35 0.05 0  0.4 0.05 0  0.45 0.05 0  0.5 0.05 0  0.55 0.05 0  0.6 0.05 0  0.65 0.05 0  0.7 0.05 0  0.75 0.05 0  0.8 0.05 0  0.85 0.05 0  0.9 0.05 0  0.95 0.05 0  1 0.05 0  0 0.1 0  0.05 0.1 0  0.1 0.1 0  0.15 0.1 0  0.2 0.1 0  0.25 0.1 0  0.3 0.1 0  0.35 0.1 0  0.4 0.1 0  0.45 0.1 0  0.5 0.1 0  0.55 0.1 0  0.6 0.1 0  0.65 0.1 0  0.7 0.1 0  0.75 0.1 0  0.8 0.1 0  0.85 0.1 0  0.9 0.1 0  0.95 0.1 0  1 0.1 0  0 0.15 0  0.05 0.15 0  0.1 0.15 0  0.15 0.15 0  0.2 0.15 0  0.25 0.15 0  0.3 0.15 0  0.35 0.15 0  0.4 0.15 0  0.45 0.15 0  0.5 0.15 0  0.55 0.15 0  0.6 0.15 0  0.65 0.15 0  0.7 0.15 0  0.75 0.15 0  0.8 0.15 0  0.85 0.15 0  0.9 0.15 0  0.95 0.15 0  1 0.15 0  0 0.2 0  0.05 0.2 0  0.1 0.2 0  0.15 0.2 0  0.2 0.2 0  0.25 0.2 0  0.3 0.2 0  0.35 0.2 0  0.4 0.2 0  0.45 0.2 0  0.5 0.2 0  0.55 0.2 0  0.6 0.2 0  0.65 0.2 0  0.7 0.2 0  0.75 0.2 0  0.8 0.2 0  0.85 0.2 0  0.9 0.2 0  0.95 0.2 0  1 0.2 0  0 0.25 0  0.05 0.25 0  0.1 0.25 0  0.15 0.25 0  0.2 0.25 0  0.25 0.25 0  0.3 0.25 0  0.35 0.25 0  0.4 0.25 0  0.45 0.25 0  0.5 0.25 0  0.55 0.25 0  0.6 0.25 0  0.65 0.25 0  0.7 0.25 0  0.75 0.25 0  0.8 0.25 0  0.85 0.25 0  0.9 0.25 0  0.95 0.25 0  1 0.25 0  0 0.3 0  0.05 0.3 0  0.1 0.3 0  0.15 0.3 0  0.2 0.3 0  0.25 0.3 0  0.3 0.3 0  0.35 0.3 0  0.4 0.3 0  0.45 0.3 0  0.5 0.3 0  0.55 0.3 0  0.6 0.3 0  0.65 0.3 0  0.7 0.3 0  0.75 0.3 0  0.8 0.3 0  0.85 0.3 0  0.9 0.3 0  0.95 0.3 0  1 0.3 0  0 0.35 0  0.05 0.35 0  0.1 0.35 0  0.15 0.35 0  0.2 0.35 0  0.25 0.35 0  0.3 0.35 0  0.35 0.35 0  0.4 0.35 0  0.45 0.35 0  0.5 0.35 0  0.55 0.35 0  0.6 0.35 0  0.65 0.35 0  0.7 0.35 0  0.75 0.35 0  0.8 0.35 0  0.85 0.35 0  0.9 0.35 0  0.95 0.35 0  1 0.35 0  0 0.4 0  0.05 0.4 0  0.1 0.4 0  0.15 0.4 0  0.2 0.4 0  0.25 0.4 0  0.3 0.4 0  0.35 0.4 0  0.4 0.4 0  0.45 0.4 0  0.5 0.4 0  0.55 0.4 0  0.6 0.4 0  0.65 0.4 0  0.7 0.4 0  0.75 0.4 0  0.8 0.4 0  0.85 0.4 0  0.9 0.4 0  0.95 0.4 0  1 0.4 0  0 0.45 0  0.05 0.45 0  0.1 0.45 0  0.15 0.45 0  0.2 0.45 0  0.25 0.45 0  0.3 0.45 0  0.35 0.45 0  0.4 0.45 0  0.45 0.45 0  0.5 0.45 0  0.55 0.45 0  0.6 0.45 0  0.65 0.45 0  0.7 0.45 0  0.75 0.45 0  0.8 0.45 0  0.85 0.45 0  0.9 0.45 0  0.95 0.45 0  1 0.45 0  0 0.5 0  0.05 0.5 0  0.1 0.5 0  0.15 0.5 0  0.2 0.5 0  0.25 0.5 0  0.3 0.5 0  0.35 0.5 0  0.4 0.5 0  0.45 0.5 0  0.5 0.5 0  0.55 0.5 0  0.6 0.5 0  0.65 0.5 0  0.7 0.5 0  0.75 0.5 0  0.8 0.5 0  0.85 0.5 0  0.9 0.5 0  0.95 0.5 0  1 0.5 0  0 0.55 0  0.05 0.55 0  0.1 0.55 0  0.15 0.55 0  0.2 0.55 0  0.25 0.55 0  0.3 0.55 0  0.35 0.55 0  0.4 0.55 0  0.45 0.55 0  0.5 0.55 0  0.55 0.55 0  0.6 0.55 0  0.65 0.55 0  0.7 0.55 0  0.75 0.55 0  0.8 0.55 0  0.85 0.55 0  0.9 0.55 0  0.95 0.55 0  1 0.55 0  0 0.6 0  0.05 0.6 0  0.1 0.6 0  0.15 0.6 0  0.2 0.6 0  0.25 0.6 0  0.3 0.6 0  0.35 0.6 0  0.4 0.6 0  0.45 0.6 0  0.5 0.6 0  0.55 0.6 0  0.6 0.6 0  0.65 0.6 0  0.7 0.6 0  0.75 0.6 0  0.8 0.6 0  0.85 0.6 0  0.9 0.6 0  0.95 0.6 0  1 0.6 0  0 0.65 0  0.05 0.65 0  0.1 0.65 0  0.15 0.65 0  0.2 0.65 0  0.25 0.65 0  0.3 0.65 0  0.35 0.65 0  0.4 0.65 0  0.45 0.65 0  0.5 0.65 0  0.55 0.65 0  0.6 0.65 0  0.65 0.65 0  0.7 0.65 0  0.75 0.65 0  0.8 0.65 0  0.85 0.65 0  0.9 0.65 0  0.95 0.65 0  1 0.65 0  0 0.7 0  0.05 0.7 0  0.1 0.7 0  0.15 0.7 0  0.2 0.7 0  0.25 0.7 0  0.3 0.7 0  0.35 0.7 0  0.4 0.7 0  0.45 0.7 0  0.5 0.7 0  0.55 0.7 0  0.6 0.7 0  0.65 0.7 0  0.7 0.7 0  0.75 0.7 0  0.8 0.7 0  0.85 0.7 0  0.9 0.7 0  0.95 0.7 0  1 0.7 0  0 0.75 0  0.05 0.75 0  0.1 0.75 0  0.15 0.75 0  0.2 0.75 0  0.25 0.75 0  0.3 0.75 0  0.35 0.75 0  0.4 0.75 0  0.45 0.75 0  0.5 0.75 0  0.55 0.75 0  0.6 0.75 0  0.65 0.75 0  0.7 0.75 0  0.75 0.75 0  0.8 0.75 0  0.85 0.75 0  0.9 0.75 0  0.95 0.75 0  1 0.75 0  0 0.8 0  0.05 0.8 0  0.1 0.8 0  0.15 0.8 0  0.2 0.8 0  0.25 0.8 0  0.3 0.8 0  0.35 0.8 0  0.4 0.8 0  0.45 0.8 0  0.5 0.8 0  0.55 0.8 0  0.6 0.8 0  0.65 0.8 0  0.7 0.8 0  0.75 0.8 0  0.8 0.8 0  0.85 0.8 0  0.9 0.8 0  0.95 0.8 0  1 0.8 0  0 0.85 0  0.05 0.85 0  0.1 0.85 0  0.15 0.85 0  0.2 0.85 0  0.25 0.85 0  0.3 0.85 0  0.35 0.85 0  0.4 0.85 0  0.45 0.85 0  0.5 0.85 0  0.55 0.85 0  0.6 0.85 0  0.65 0.85 0  0.7 0.85 0  0.75 0.85 0  0.8 0.85 0  0.85 0.85 0  0.9 0.85 0  0.95 0.85 0  1 0.85 0  0 0.9 0  0.05 0.9 0  0.1 0.9 0  0.15 0.9 0  0.2 0.9 0  0.25 0.9 0  0.3 0.9 0  0.35 0.9 0  0.4 0.9 0  0.45 0.9 0  0.5 0.9 0  0.55 0.9 0  0.6 0.9 0  0.65 0.9 0  0.7 0.9 0  0.75 0.9 0  0.8 0.9 0  0.85 0.9 0  0.9 0.9 0  0.95 0.9 0  1 0.9 0  0 0.95 0  0.05 0.95 0  0.1 0.95 0  0.15 0.95 0  0.2 0.95 0  0.25 0.95 0  0.3 0.95 0  0.35 0.95 0  0.4 0.95 0  0.45 0.95 0  0.5 0.95 0  0.55 0.95 0  0.6 0.95 0  0.65 0.95 0  0.7 0.95 0  0.75 0.95 0  0.8 0.95 0  0.85 0.95 0  0.9 0.95 0  0.95 0.95 0  1 0.95 0  0 1 0  0.05 1 0  0.1 1 0  0.15 1 0  0.2 1 0  0.25 1 0  0.3 1 0  0.35 1 0  0.4 1 0  0.45 1 0  0.5 1 0  0.55 1 0  0.6 1 0  0.65 1 0  0.7 1 0  0.75 1 0  0.8 1 0  0.85 1 0  0.9 1 0  0.95 1 0  1 1 0  </DataArray>
</Points>
<Cells>
[...]
<PointData  Vectors="u"> 
<DataArray  type="Float64"  Name="u"  NumberOfComponents="3" format="ascii">0.0000000000000000e+00 0.0000000000000000e+00 0.0000000000000000e+00  0.0000000000000000e+00 0.0000000000000000e+00 0.0000000000000000e+00  0.0000000000000000e+00 0.0000000000000000e+00 0.0000000000000000e+00  0.0000000000000000e+00 0.0000000000000000e+00 0.0000000000000000e+00  0.0000000000000000e+00 0.0000000000000000e+00 0.0000000000000000e+00  0.0000000000000000e+00 0.0000000000000000e+00 0.0000000000000000e+00  0.0000000000000000e+00 0.0000000000000000e+00 0.0000000000000000e+00  0.0000000000000000e+00 0.0000000000000000e+00 0.0000000000000000e+00  0.0000000000000000e+00 0.0000000000000000e+00 0.0000000000000000e+00  0.0000000000000000e+00 0.0000000000000000e+00 0.0000000000000000e+00  0.0000000000000000e+00 0.0000000000000000e+00 0.0000000000000000e+00  0.0000000000000000e+00 0.0000000000000000e+00 0.0000000000000000e+00  0.0000000000000000e+00 0.0000000000000000e+00 0.0000000000000000e+00  0.0000000000000000e+00 0.0000000000000000e+00 0.0000000000000000e+00  0.0000000000000000e+00 0.0000000000000000e+00 0.0000000000000000e+00  0.0000000000000000e+00 0.0000000000000000e+00 0.0000000000000000e+00  0.0000000000000000e+00 0.0000000000000000e+00 0.0000000000000000e+00  0.0000000000000000e+00 0.0000000000000000e+00 0.0000000000000000e+00  0.0000000000000000e+00 0.0000000000000000e+00 0.0000000000000000e+00  0.0000000000000000e+00 0.0000000000000000e+00 0.0000000000000000e+00  0.0000000000000000e+00 0.0000000000000000e+00 0.0000000000000000e+00  0.0000000000000000e+00 0.0000000000000000e+00 0.0000000000000000e+00  0.0000000000000000e+00 0.0000000000000000e+00 0.0000000000000000e+00  0.0000000000000000e+00 0.0000000000000000e+00 0.0000000000000000e+00  0.0000000000000000e+00 0.0000000000000000e+00 0.0000000000000000e+00  0.0000000000000000e+00 0.0000000000000000e+00 0.0000000000000000e+00  0.0000000000000000e+00 0.0000000000000000e+00 0.0000000000000000e+00  0.0000000000000000e+00 0.0000000000000000e+00 0.0000000000000000e+00  0.0000000000000000e+00 0.0000000000000000e+00 0.0000000000000000e+00  0.0000000000000000e+00 0.0000000000000000e+00 0.0000000000000000e+00  -3.8601359255615637e-16 0.0000000000000000e+00 0.0000000000000000e+00  -4.4001002858990080e-16 0.0000000000000000e+00 0.0000000000000000e+00  -5.8477751353745894e-16 0.0000000000000000e+00 0.0000000000000000e+00  -6.2923821463173071e-16 0.0000000000000000e+00 0.0000000000000000e+00  -6.2411830668349493e-16 0.0000000000000000e+00 0.0000000000000000e+00  -7.4707890602213142e-16 0.0000000000000000e+00 0.0000000000000000e+00  -6.7579667686560877e-16 0.0000000000000000e+00 0.0000000000000000e+00  -6.9150591282607952e-16 0.0000000000000000e+00 0.0000000000000000e+00  -6.5157989110964503e-16 0.0000000000000000e+00 0.0000000000000000e+00  -6.4177523282115505e-16 0.0000000000000000e+00 0.0000000000000000e+00  -5.6699489961519136e-16 0.0000000000000000e+00 0.0000000000000000e+00  -5.4586833012912444e-16 0.0000000000000000e+00 0.0000000000000000e+00  0.0000000000000000e+00 0.0000000000000000e+00 0.0000000000000000e+00  0.0000000000000000e+00 0.0000000000000000e+00 0.0000000000000000e+00  0.0000000000000000e+00 0.0000000000000000e+00 0.0000000000000000e+00  0.0000000000000000e+00 0.0000000000000000e+00 0.0000000000000000e+00  0.0000000000000000e+00 0.0000000000000000e+00 0.0000000000000000e+00  0.0000000000000000e+00 0.0000000000000000e+00 0.0000000000000000e+00  0.0000000000000000e+00 0.0000000000000000e+00 0.0000000000000000e+00  0.0000000000000000e+00 0.0000000000000000e+00 0.0000000000000000e+00  -4.3087972343277582e-16 0.0000000000000000e+00 0.0000000000000000e+00  -4.8236069124832928e-16 0.0000000000000000e+00 0.0000000000000000e+00  -7.0659843711959379e-16 0.0000000000000000e+00 0.0000000000000000e+00  -7.8647243300241870e-16 0.0000000000000000e+00 0.0000000000000000e+00  -9.8614356470153313e-16 0.0000000000000000e+00 0.0000000000000000e+00  -1.0142523490292572e-15 0.0000000000000000e+00 0.0000000000000000e+00  -1.1680092687989275e-15 0.0000000000000000e+00 0.0000000000000000e+00  -1.2647937185998842e-15 0.0000000000000000e+00 0.0000000000000000e+00  -1.2575457628819251e-15 0.0000000000000000e+00 0.0000000000000000e+00  -1.1563080687124717e-15 0.0000000000000000e+00 0.0000000000000000e+00  -1.0740961250877493e-15 0.0000000000000000e+00 0.0000000000000000e+00  -1.1316476490801343e-15 0.0000000000000000e+00 0.0000000000000000e+00  -1.1054179169845195e-15 3.3794912185157109e-16 0.0000000000000000e+00  0.0000000000000000e+00 0.0000000000000000e+00 0.0000000000000000e+00  0.0000000000000000e+00 0.0000000000000000e+00 0.0000000000000000e+00  0.0000000000000000e+00 0.0000000000000000e+00 0.0000000000000000e+00  0.0000000000000000e+00 0.0000000000000000e+00 0.0000000000000000e+00  0.0000000000000000e+00 0.0000000000000000e+00 0.0000000000000000e+00  0.0000000000000000e+00 0.0000000000000000e+00 0.0000000000000000e+00  0.0000000000000000e+00 0.0000000000000000e+00 0.0000000000000000e+00  0.0000000000000000e+00 0.0000000000000000e+00 0.0000000000000000e+00  -3.4101433127897777e-16 0.0000000000000000e+00 0.0000000000000000e+00  -5.9256188211669847e-16 0.0000000000000000e+00 0.0000000000000000e+00  -9.0920044552905487e-16 0.0000000000000000e+00 0.0000000000000000e+00  -9.5989562284937217e-16 0.0000000000000000e+00 0.0000000000000000e+00  -1.0447996105625052e-15 0.0000000000000000e+00 0.0000000000000000e+00  -1.3620250833137706e-15 0.0000000000000000e+00 0.0000000000000000e+00  -1.5265035642089484e-15 0.0000000000000000e+00 0.0000000000000000e+00  -1.4744200118920312e-15 0.0000000000000000e+00 0.0000000000000000e+00  -1.5229265644773159e-15 0.0000000000000000e+00 0.0000000000000000e+00  -1.3919373243080011e-15 0.0000000000000000e+00 0.0000000000000000e+00  -1.4698705704948079e-15 0.0000000000000000e+00 0.0000000000000000e+00  -1.4633840758790999e-15 4.1488501750712266e-16 0.0000000000000000e+00  -1.6495618424648511e-15 5.0462024231204655e-16 0.0000000000000000e+00  0.0000000000000000e+00 0.0000000000000000e+00 0.0000000000000000e+00  0.0000000000000000e+00 0.0000000000000000e+00 0.0000000000000000e+00  0.0000000000000000e+00 0.0000000000000000e+00 0.0000000000000000e+00  0.0000000000000000e+00 0.0000000000000000e+00 0.0000000000000000e+00  0.0000000000000000e+00 0.0000000000000000e+00 0.0000000000000000e+00  0.0000000000000000e+00 0.0000000000000000e+00 0.0000000000000000e+00  0.0000000000000000e+00 3.4340854139159275e-16 0.0000000000000000e+00  -3.5780943169559897e-16 3.8832811672574154e-16 0.0000000000000000e+00  -6.7701036008680139e-16 4.0281483210223508e-16 0.0000000000000000e+00  -6.0314840760766861e-16 4.3974696270943828e-16 0.0000000000000000e+00  -9.2780637169185465e-16 3.2989651830236584e-16 0.0000000000000000e+00  -9.1261334433005854e-16 0.0000000000000000e+00 0.0000000000000000e+00  -1.1740159981370610e-15 0.0000000000000000e+00 0.0000000000000000e+00  -1.2336128756764254e-15 0.0000000000000000e+00 0.0000000000000000e+00  -1.3785486417925169e-15 0.0000000000000000e+00 0.0000000000000000e+00  -1.2971028807748071e-15 0.0000000000000000e+00 0.0000000000000000e+00  -1.4744141749227179e-15 0.0000000000000000e+00 0.0000000000000000e+00  -1.5888132721263569e-15 0.0000000000000000e+00 0.0000000000000000e+00  -1.5755178620862484e-15 3.2568464374278533e-16 0.0000000000000000e+00  -1.7242702501155396e-15 5.7405590923905200e-16 0.0000000000000000e+00  -1.8673288119259954e-15 6.4917644085100853e-16 0.0000000000000000e+00  0.0000000000000000e+00 0.0000000000000000e+00 0.0000000000000000e+00  0.0000000000000000e+00 0.0000000000000000e+00 0.0000000000000000e+00  0.0000000000000000e+00 0.0000000000000000e+00 0.0000000000000000e+00  0.0000000000000000e+00 0.0000000000000000e+00 0.0000000000000000e+00  0.0000000000000000e+00 0.0000000000000000e+00 0.0000000000000000e+00  -4.6114923210695641e-16 3.3097452205207063e-16 0.0000000000000000e+00  -3.2666595752330406e-16 4.8976954435376421e-16 0.0000000000000000e+00  -3.8839164061423766e-16 5.4699750025158921e-16 0.0000000000000000e+00  -4.0557508899689095e-16 5.4255969777495830e-16 0.0000000000000000e+00  -4.8944881527820936e-16 5.0061035821862595e-16 0.0000000000000000e+00  -5.0391019953455067e-16 4.9486295077094940e-16 0.0000000000000000e+00  -7.0968231360349660e-16 4.6951024080108723e-16 0.0000000000000000e+00  -6.6673367309137601e-16 4.6844677748370828e-16 0.0000000000000000e+00  -6.8401818124870030e-16 3.5519806327509172e-16 0.0000000000000000e+00  -9.6555188131389550e-16 0.0000000000000000e+00 0.0000000000000000e+00  -9.2106280482559065e-16 0.0000000000000000e+00 0.0000000000000000e+00  -1.4501874774701622e-15 0.0000000000000000e+00 0.0000000000000000e+00  -1.5986851254793967e-15 0.0000000000000000e+00 0.0000000000000000e+00  -1.7702972019615270e-15 4.7496569536249430e-16 0.0000000000000000e+00  -1.8858096510757166e-15 6.7969252228688651e-16 0.0000000000000000e+00  -2.0445879064514985e-15 7.5546067708147392e-16 0.0000000000000000e+00  0.0000000000000000e+00 0.0000000000000000e+00 0.0000000000000000e+00  0.0000000000000000e+00 0.0000000000000000e+00 0.0000000000000000e+00  0.0000000000000000e+00 0.0000000000000000e+00 0.0000000000000000e+00  0.0000000000000000e+00 0.0000000000000000e+00 0.0000000000000000e+00  -4.7968163164905972e-16 0.0000000000000000e+00 0.0000000000000000e+00  -4.4256617031014176e-16 3.2442445925956726e-16 0.0000000000000000e+00  -3.2458254850735913e-16 4.0450037229057247e-16 0.0000000000000000e+00  0.0000000000000000e+00 5.4187048997953831e-16 0.0000000000000000e+00  0.0000000000000000e+00 6.0351558364758416e-16 0.0000000000000000e+00  0.0000000000000000e+00 5.0832161351227908e-16 0.0000000000000000e+00  0.0000000000000000e+00 6.2270163288519047e-16 0.0000000000000000e+00  0.0000000000000000e+00 6.9708507664695013e-16 0.0000000000000000e+00  0.0000000000000000e+00 6.1321259546111246e-16 0.0000000000000000e+00  0.0000000000000000e+00 4.8799838217134254e-16 0.0000000000000000e+00  0.0000000000000000e+00 3.9296628710895724e-16 0.0000000000000000e+00  -4.0155848780982033e-16 4.5238980241395951e-16 0.0000000000000000e+00  -6.5084388131049787e-16 5.4282391440690824e-16 0.0000000000000000e+00  -8.9841629395316382e-16 4.8360334492399680e-16 0.0000000000000000e+00  -1.4629914245413220e-15 5.8811332565234517e-16 0.0000000000000000e+00  -1.3690222971598675e-15 7.2518576541467344e-16 0.0000000000000000e+00  -1.6063956012990502e-15 7.8356673499128351e-16 0.0000000000000000e+00  0.0000000000000000e+00 0.0000000000000000e+00 0.0000000000000000e+00  0.0000000000000000e+00 0.0000000000000000e+00 0.0000000000000000e+00  0.0000000000000000e+00 0.0000000000000000e+00 0.0000000000000000e+00  -3.2821988834758165e-16 0.0000000000000000e+00 0.0000000000000000e+00  -5.6803214037173058e-16 0.0000000000000000e+00 0.0000000000000000e+00  0.0000000000000000e+00 0.0000000000000000e+00 0.0000000000000000e+00  0.0000000000000000e+00 0.0000000000000000e+00 0.0000000000000000e+00  0.0000000000000000e+00 3.2854512220560354e-16 0.0000000000000000e+00  4.7667400625323293e-16 4.0322278633544524e-16 0.0000000000000000e+00  8.4510860391827320e-16 5.3629534924638965e-16 0.0000000000000000e+00  7.4229767690589848e-16 6.1964042399776195e-16 0.0000000000000000e+00  9.5804359365999080e-16 7.6163028056440292e-16 0.0000000000000000e+00  9.1757740755846000e-16 8.0128815280410587e-16 0.0000000000000000e+00  6.4987135991067018e-16 7.2632825560315272e-16 0.0000000000000000e+00  3.6726650131826934e-16 6.4146928269125083e-16 0.0000000000000000e+00  0.0000000000000000e+00 7.2218584094883043e-16 0.0000000000000000e+00  0.0000000000000000e+00 7.9408736102880945e-16 0.0000000000000000e+00  -6.7842137227418781e-16 8.9228642024934493e-16 0.0000000000000000e+00  -1.0547897046745282e-15 8.3791399170739527e-16 0.0000000000000000e+00  -1.2949678913002690e-15 8.0182213386842182e-16 0.0000000000000000e+00  -1.4320447943801739e-15 9.1852427736997699e-16 0.0000000000000000e+00  0.0000000000000000e+00 0.0000000000000000e+00 0.0000000000000000e+00  0.0000000000000000e+00 0.0000000000000000e+00 0.0000000000000000e+00  0.0000000000000000e+00 0.0000000000000000e+00 0.0000000000000000e+00  0.0000000000000000e+00 3.4083621653511270e-16 0.0000000000000000e+00  0.0000000000000000e+00 3.3829807879242065e-16 0.0000000000000000e+00  0.0000000000000000e+00 0.0000000000000000e+00 0.0000000000000000e+00  0.0000000000000000e+00 0.0000000000000000e+00 0.0000000000000000e+00  0.0000000000000000e+00 0.0000000000000000e+00 0.0000000000000000e+00  4.6301838689740057e-16 0.0000000000000000e+00 0.0000000000000000e+00  6.8648857403203818e-16 3.3993503000629138e-16 0.0000000000000000e+00  9.0048757138829423e-16 4.5915012764803868e-16 0.0000000000000000e+00  1.1417707359607778e-15 5.8518241820332307e-16 0.0000000000000000e+00  1.3008116515847754e-15 8.3328226158587478e-16 0.0000000000000000e+00  1.2673902761190300e-15 1.0117844134016144e-15 0.0000000000000000e+00  8.4273450710760142e-16 1.0529880872099671e-15 0.0000000000000000e+00  3.8166201920747755e-16 1.0772872626411948e-15 0.0000000000000000e+00  0.0000000000000000e+00 1.1894617565626095e-15 0.0000000000000000e+00  -4.7958670573976375e-16 1.2232244521703932e-15 0.0000000000000000e+00  -5.7106158103674661e-16 1.0834430176675986e-15 0.0000000000000000e+00  -1.0822590074114333e-15 8.8908495557715838e-16 0.0000000000000000e+00  -9.7975253417291517e-16 9.2938573636642589e-16 0.0000000000000000e+00  0.0000000000000000e+00 0.0000000000000000e+00 0.0000000000000000e+00  3.8636196928403780e-16 0.0000000000000000e+00 0.0000000000000000e+00  0.0000000000000000e+00 3.1039618699286067e-16 0.0000000000000000e+00  0.0000000000000000e+00 3.5954069438645578e-16 0.0000000000000000e+00  0.0000000000000000e+00 3.2876224207012167e-16 0.0000000000000000e+00  0.0000000000000000e+00 0.0000000000000000e+00 0.0000000000000000e+00  0.0000000000000000e+00 0.0000000000000000e+00 0.0000000000000000e+00  0.0000000000000000e+00 0.0000000000000000e+00 0.0000000000000000e+00  6.3989673955891671e-16 0.0000000000000000e+00 0.0000000000000000e+00  6.7463426934838699e-16 0.0000000000000000e+00 0.0000000000000000e+00  9.0852066410704406e-16 0.0000000000000000e+00 0.0000000000000000e+00  1.1540387563109310e-15 4.9313997540935784e-16 0.0000000000000000e+00  1.1674426283567769e-15 7.5553523070262531e-16 0.0000000000000000e+00  1.1336911046096806e-15 1.1366212326575668e-15 0.0000000000000000e+00  1.0414695168073330e-15 1.4073485856515271e-15 0.0000000000000000e+00  7.4214335906939731e-16 1.3975982697899380e-15 0.0000000000000000e+00  5.5595788466159923e-16 1.4777349395720384e-15 0.0000000000000000e+00  4.0020405830029617e-16 1.3669976541406502e-15 0.0000000000000000e+00  0.0000000000000000e+00 1.1640987967054216e-15 0.0000000000000000e+00  0.0000000000000000e+00 1.0116686603354341e-15 0.0000000000000000e+00  -4.4178811816787096e-16 9.4052468811124423e-16 0.0000000000000000e+00  0.0000000000000000e+00 0.0000000000000000e+00 0.0000000000000000e+00  0.0000000000000000e+00 0.0000000000000000e+00 0.0000000000000000e+00  0.0000000000000000e+00 0.0000000000000000e+00 0.0000000000000000e+00  0.0000000000000000e+00 3.4501673299482491e-16 0.0000000000000000e+00  0.0000000000000000e+00 0.0000000000000000e+00 0.0000000000000000e+00  4.3112648668456341e-16 0.0000000000000000e+00 0.0000000000000000e+00  0.0000000000000000e+00 0.0000000000000000e+00 0.0000000000000000e+00  3.4829450254908240e-16 0.0000000000000000e+00 0.0000000000000000e+00  7.6471642391327190e-16 0.0000000000000000e+00 0.0000000000000000e+00  8.3796239270326508e-16 0.0000000000000000e+00 0.0000000000000000e+00  7.7563682342483400e-16 0.0000000000000000e+00 0.0000000000000000e+00  6.4309564854610384e-16 4.5184363490371834e-16 0.0000000000000000e+00  7.8319883748064855e-16 6.4698866864729330e-16 0.0000000000000000e+00  8.5387886832747307e-16 1.1190710053463218e-15 0.0000000000000000e+00  9.8270154982500392e-16 1.4264172441319766e-15 0.0000000000000000e+00  9.7627596812713860e-16 1.4803583820306808e-15 0.0000000000000000e+00  1.4235992069491848e-15 1.4214033380444639e-15 0.0000000000000000e+00  1.2220918367217169e-15 1.3655319817916885e-15 0.0000000000000000e+00  1.2015027019906262e-15 1.2712663482170348e-15 0.0000000000000000e+00  1.0544019614926311e-15 1.1973601267903585e-15 0.0000000000000000e+00  6.9520130871236118e-16 1.1138392125059722e-15 0.0000000000000000e+00  0.0000000000000000e+00 0.0000000000000000e+00 0.0000000000000000e+00  0.0000000000000000e+00 0.0000000000000000e+00 0.0000000000000000e+00  0.0000000000000000e+00 0.0000000000000000e+00 0.0000000000000000e+00  0.0000000000000000e+00 0.0000000000000000e+00 0.0000000000000000e+00  0.0000000000000000e+00 0.0000000000000000e+00 0.0000000000000000e+00  5.1502080893459955e-16 0.0000000000000000e+00 0.0000000000000000e+00  6.2073485983922141e-16 0.0000000000000000e+00 0.0000000000000000e+00  1.0017086585860342e-15 0.0000000000000000e+00 0.0000000000000000e+00  6.8753288610560002e-16 -4.0132724027363199e-16 0.0000000000000000e+00  1.0381036354540953e-15 0.0000000000000000e+00 0.0000000000000000e+00  6.4786171105284012e-16 0.0000000000000000e+00 0.0000000000000000e+00  1.2025582765702025e-15 4.0601509418454978e-16 0.0000000000000000e+00  1.0225022515879265e-15 6.8380548605991823e-16 0.0000000000000000e+00  8.2686909018422696e-16 9.8122032076393028e-16 0.0000000000000000e+00  1.0672428130077932e-15 1.3408225227748846e-15 0.0000000000000000e+00  1.2875224046354280e-15 1.4446443838028793e-15 0.0000000000000000e+00  1.1471282834546174e-15 1.3095885415241482e-15 0.0000000000000000e+00  9.3229871621540689e-16 1.3332770327842333e-15 0.0000000000000000e+00  1.3454672164984938e-15 1.3555790027513301e-15 0.0000000000000000e+00  1.4991500111454104e-15 1.3308601163115945e-15 0.0000000000000000e+00  9.4425424582303114e-16 1.2656137817155502e-15 0.0000000000000000e+00  0.0000000000000000e+00 0.0000000000000000e+00 0.0000000000000000e+00  0.0000000000000000e+00 0.0000000000000000e+00 0.0000000000000000e+00  0.0000000000000000e+00 0.0000000000000000e+00 0.0000000000000000e+00  0.0000000000000000e+00 0.0000000000000000e+00 0.0000000000000000e+00  4.8753604762994013e-16 0.0000000000000000e+00 0.0000000000000000e+00  3.6535134653140548e-16 0.0000000000000000e+00 0.0000000000000000e+00  6.2849505882850385e-16 0.0000000000000000e+00 0.0000000000000000e+00  1.2955545447513565e-15 -3.1511424374463085e-16 0.0000000000000000e+00  1.1617127146664943e-15 -4.8372725459062751e-16 0.0000000000000000e+00  1.5785077234466959e-15 0.0000000000000000e+00 0.0000000000000000e+00  1.6131997693996196e-15 0.0000000000000000e+00 0.0000000000000000e+00  1.3893835616575053e-15 4.2355337307612852e-16 0.0000000000000000e+00  8.4717281925685290e-16 9.3054179633670824e-16 0.0000000000000000e+00  1.2313798072335028e-15 1.0529029058526944e-15 0.0000000000000000e+00  9.9540277440543954e-16 1.1565484277322609e-15 0.0000000000000000e+00  1.0461007657679441e-15 1.3827541040099927e-15 0.0000000000000000e+00  1.1216499555398280e-15 1.4455154546330114e-15 0.0000000000000000e+00  8.9756278934617870e-16 1.4324848224695532e-15 0.0000000000000000e+00  6.9936852464320170e-16 1.3955120306860904e-15 0.0000000000000000e+00  5.1428026465015991e-16 1.3205063517880853e-15 0.0000000000000000e+00  8.7888217482787006e-16 1.3458146353438272e-15 0.0000000000000000e+00  0.0000000000000000e+00 0.0000000000000000e+00 0.0000000000000000e+00  0.0000000000000000e+00 0.0000000000000000e+00 0.0000000000000000e+00  0.0000000000000000e+00 0.0000000000000000e+00 0.0000000000000000e+00  4.4281107441739131e-16 0.0000000000000000e+00 0.0000000000000000e+00  5.4865682701705739e-16 -3.0803779214807034e-16 0.0000000000000000e+00  4.2417349935326122e-16 -4.6712169620689602e-16 0.0000000000000000e+00  9.2940721433061578e-16 -5.7705577705932901e-16 0.0000000000000000e+00  9.9474029403473186e-16 -4.9567744841830831e-16 0.0000000000000000e+00  1.5889345929779834e-15 -5.9102121396087639e-16 0.0000000000000000e+00  1.3169960398318804e-15 0.0000000000000000e+00 0.00000000000000