<?xml version="1.0"?>
<VTKFile type="UnstructuredGrid"  version="0.1"  >
<UnstructuredGrid>
<Piece  NumberOfPoints="9" NumberOfCells="8">
<Points>
<DataArray  type="Float64"  NumberOfComponents="3"  format="ascii">0 0 0  0.125 0 0  0.25 0 0  0.375 0 0  0.5 0 0  0.625 0 0  0.75 0 0  0.875 0 0  1 0 0  </DataArray>
</Points>
<Cells>
<DataArray  type="UInt32"  Name="connectivity"  format="ascii">0 1  1 2  2 3  3 4  4 5  5 6  6 7  7 8  </DataArray>
<DataArray  type="UInt32"  Name="offsets"  format="ascii">2 4 6 8 10 12 14 16 </DataArray>
<DataArray  type="UInt8"  Name="types"  format="ascii">3 3 3 3 3 3 3 3 </DataArray>
</Cells>
<CellData  Scalars="u"> 
<DataArray  type="Float64"  Name="u"  format="ascii">0.0000000000000000e+00   6.8361832531042444e-01   1.6020938042871080e-06   1.7828386597029677e-06   1.9653230743932326e-06   2.1495704469742805e-06   2.3356045699696182e-06   2.5234496453530042e-06   </DataArray> 
</CellData> 
</Piece>
</UnstructuredGrid>
</VTKFile>