<?xml version="1.0"?>
<VTKFile type="UnstructuredGrid"  version="0.1"  >
<UnstructuredGrid>
<Piece  NumberOfPoints="21" NumberOfCells="20">
<Points>
<DataArray  type="Float64"  NumberOfComponents="3"  format="ascii">0 0 0  0.05 0 0  0.1 0 0  0.15 0 0  0.2 0 0  0.25 0 0  0.3 0 0  0.35 0 0  0.4 0 0  0.45 0 0  0.5 0 0  0.55 0 0  0.6 0 0  0.65 0 0  0.7 0 0  0.75 0 0  0.8 0 0  0.85 0 0  0.9 0 0  0.95 0 0  1 0 0  </DataArray>
</Points>
<Cells>
<DataArray  type="UInt32"  Name="connectivity"  format="ascii">0 1  1 2  2 3  3 4  4 5  5 6  6 7  7 8  8 9  9 10  10 11  11 12  12 13  13 14  14 15  15 16  16 17  17 18  18 19  19 20  </DataArray>
<DataArray  type="UInt32"  Name="offsets"  format="ascii">2 4 6 8 10 12 14 16 18 20 22 24 26 28 30 32 34 36 38 40 </DataArray>
<DataArray  type="UInt8"  Name="types"  format="ascii">3 3 3 3 3 3 3 3 3 3 3 3 3 3 3 3 3 3 3 3 </DataArray>
</Cells>
<PointData  Scalars="u"> 
<DataArray  type="Float64"  Name="u"  format="ascii">-2.9460483531862405e-15  8.0260771064497067e+00  1.2497109376386295e+01  1.4813178303115539e+01  1.5965456854912389e+01  1.6424398064763171e+01  1.6449667970060617e+01  1.6182439298781045e+01  1.5700578564815912e+01  1.5047142435713784e+01  1.4244498185673626e+01  1.3302649401596971e+01  1.2224696718072982e+01  1.1011026026182378e+01  9.6633164937996234e+00  8.1892151017696904e+00  6.6087243180010082e+00  4.9606218604680707e+00  3.3090679044081690e+00  1.7040052308116678e+00  -4.2182177092666785e-16  </DataArray> 
</PointData> 
</Piece>
</UnstructuredGrid>
</VTKFile>