<?xml version="1.0"?>
<VTKFile type="UnstructuredGrid"  version="0.1"  >
<UnstructuredGrid>
<Piece  NumberOfPoints="441" NumberOfCells="800">
<Points>
<DataArray  type="Float64"  NumberOfComponents="3"  format="ascii">0 0 0  0.05 0 0  0.1 0 0  0.15 0 0  0.2 0 0  0.25 0 0  0.3 0 0  0.35 0 0  0.4 0 0  0.45 0 0  0.5 0 0  0.55 0 0  0.6 0 0  0.65 0 0  0.7 0 0  0.75 0 0  0.8 0 0  0.85 0 0  0.9 0 0  0.95 0 0  1 0 0  0 0.05 0  0.05 0.05 0  0.1 0.05 0  0.15 0.05 0  0.2 0.05 0  0.25 0.05 0  0.3 0.05 0  0.35 0.05 0  0.4 0.05 0  0.45 0.05 0  0.5 0.05 0  0.55 0.05 0  0.6 0.05 0  0.65 0.05 0  0.7 0.05 0  0.75 0.05 0  0.8 0.05 0  0.85 0.05 0  0.9 0.05 0  0.95 0.05 0  1 0.05 0  0 0.1 0  0.05 0.1 0  0.1 0.1 0  0.15 0.1 0  0.2 0.1 0  0.25 0.1 0  0.3 0.1 0  0.35 0.1 0  0.4 0.1 0  0.45 0.1 0  0.5 0.1 0  0.55 0.1 0  0.6 0.1 0  0.65 0.1 0  0.7 0.1 0  0.75 0.1 0  0.8 0.1 0  0.85 0.1 0  0.9 0.1 0  0.95 0.1 0  1 0.1 0  0 0.15 0  0.05 0.15 0  0.1 0.15 0  0.15 0.15 0  0.2 0.15 0  0.25 0.15 0  0.3 0.15 0  0.35 0.15 0  0.4 0.15 0  0.45 0.15 0  0.5 0.15 0  0.55 0.15 0  0.6 0.15 0  0.65 0.15 0  0.7 0.15 0  0.75 0.15 0  0.8 0.15 0  0.85 0.15 0  0.9 0.15 0  0.95 0.15 0  1 0.15 0  0 0.2 0  0.05 0.2 0  0.1 0.2 0  0.15 0.2 0  0.2 0.2 0  0.25 0.2 0  0.3 0.2 0  0.35 0.2 0  0.4 0.2 0  0.45 0.2 0  0.5 0.2 0  0.55 0.2 0  0.6 0.2 0  0.65 0.2 0  0.7 0.2 0  0.75 0.2 0  0.8 0.2 0  0.85 0.2 0  0.9 0.2 0  0.95 0.2 0  1 0.2 0  0 0.25 0  0.05 0.25 0  0.1 0.25 0  0.15 0.25 0  0.2 0.25 0  0.25 0.25 0  0.3 0.25 0  0.35 0.25 0  0.4 0.25 0  0.45 0.25 0  0.5 0.25 0  0.55 0.25 0  0.6 0.25 0  0.65 0.25 0  0.7 0.25 0  0.75 0.25 0  0.8 0.25 0  0.85 0.25 0  0.9 0.25 0  0.95 0.25 0  1 0.25 0  0 0.3 0  0.05 0.3 0  0.1 0.3 0  0.15 0.3 0  0.2 0.3 0  0.25 0.3 0  0.3 0.3 0  0.35 0.3 0  0.4 0.3 0  0.45 0.3 0  0.5 0.3 0  0.55 0.3 0  0.6 0.3 0  0.65 0.3 0  0.7 0.3 0  0.75 0.3 0  0.8 0.3 0  0.85 0.3 0  0.9 0.3 0  0.95 0.3 0  1 0.3 0  0 0.35 0  0.05 0.35 0  0.1 0.35 0  0.15 0.35 0  0.2 0.35 0  0.25 0.35 0  0.3 0.35 0  0.35 0.35 0  0.4 0.35 0  0.45 0.35 0  0.5 0.35 0  0.55 0.35 0  0.6 0.35 0  0.65 0.35 0  0.7 0.35 0  0.75 0.35 0  0.8 0.35 0  0.85 0.35 0  0.9 0.35 0  0.95 0.35 0  1 0.35 0  0 0.4 0  0.05 0.4 0  0.1 0.4 0  0.15 0.4 0  0.2 0.4 0  0.25 0.4 0  0.3 0.4 0  0.35 0.4 0  0.4 0.4 0  0.45 0.4 0  0.5 0.4 0  0.55 0.4 0  0.6 0.4 0  0.65 0.4 0  0.7 0.4 0  0.75 0.4 0  0.8 0.4 0  0.85 0.4 0  0.9 0.4 0  0.95 0.4 0  1 0.4 0  0 0.45 0  0.05 0.45 0  0.1 0.45 0  0.15 0.45 0  0.2 0.45 0  0.25 0.45 0  0.3 0.45 0  0.35 0.45 0  0.4 0.45 0  0.45 0.45 0  0.5 0.45 0  0.55 0.45 0  0.6 0.45 0  0.65 0.45 0  0.7 0.45 0  0.75 0.45 0  0.8 0.45 0  0.85 0.45 0  0.9 0.45 0  0.95 0.45 0  1 0.45 0  0 0.5 0  0.05 0.5 0  0.1 0.5 0  0.15 0.5 0  0.2 0.5 0  0.25 0.5 0  0.3 0.5 0  0.35 0.5 0  0.4 0.5 0  0.45 0.5 0  0.5 0.5 0  0.55 0.5 0  0.6 0.5 0  0.65 0.5 0  0.7 0.5 0  0.75 0.5 0  0.8 0.5 0  0.85 0.5 0  0.9 0.5 0  0.95 0.5 0  1 0.5 0  0 0.55 0  0.05 0.55 0  0.1 0.55 0  0.15 0.55 0  0.2 0.55 0  0.25 0.55 0  0.3 0.55 0  0.35 0.55 0  0.4 0.55 0  0.45 0.55 0  0.5 0.55 0  0.55 0.55 0  0.6 0.55 0  0.65 0.55 0  0.7 0.55 0  0.75 0.55 0  0.8 0.55 0  0.85 0.55 0  0.9 0.55 0  0.95 0.55 0  1 0.55 0  0 0.6 0  0.05 0.6 0  0.1 0.6 0  0.15 0.6 0  0.2 0.6 0  0.25 0.6 0  0.3 0.6 0  0.35 0.6 0  0.4 0.6 0  0.45 0.6 0  0.5 0.6 0  0.55 0.6 0  0.6 0.6 0  0.65 0.6 0  0.7 0.6 0  0.75 0.6 0  0.8 0.6 0  0.85 0.6 0  0.9 0.6 0  0.95 0.6 0  1 0.6 0  0 0.65 0  0.05 0.65 0  0.1 0.65 0  0.15 0.65 0  0.2 0.65 0  0.25 0.65 0  0.3 0.65 0  0.35 0.65 0  0.4 0.65 0  0.45 0.65 0  0.5 0.65 0  0.55 0.65 0  0.6 0.65 0  0.65 0.65 0  0.7 0.65 0  0.75 0.65 0  0.8 0.65 0  0.85 0.65 0  0.9 0.65 0  0.95 0.65 0  1 0.65 0  0 0.7 0  0.05 0.7 0  0.1 0.7 0  0.15 0.7 0  0.2 0.7 0  0.25 0.7 0  0.3 0.7 0  0.35 0.7 0  0.4 0.7 0  0.45 0.7 0  0.5 0.7 0  0.55 0.7 0  0.6 0.7 0  0.65 0.7 0  0.7 0.7 0  0.75 0.7 0  0.8 0.7 0  0.85 0.7 0  0.9 0.7 0  0.95 0.7 0  1 0.7 0  0 0.75 0  0.05 0.75 0  0.1 0.75 0  0.15 0.75 0  0.2 0.75 0  0.25 0.75 0  0.3 0.75 0  0.35 0.75 0  0.4 0.75 0  0.45 0.75 0  0.5 0.75 0  0.55 0.75 0  0.6 0.75 0  0.65 0.75 0  0.7 0.75 0  0.75 0.75 0  0.8 0.75 0  0.85 0.75 0  0.9 0.75 0  0.95 0.75 0  1 0.75 0  0 0.8 0  0.05 0.8 0  0.1 0.8 0  0.15 0.8 0  0.2 0.8 0  0.25 0.8 0  0.3 0.8 0  0.35 0.8 0  0.4 0.8 0  0.45 0.8 0  0.5 0.8 0  0.55 0.8 0  0.6 0.8 0  0.65 0.8 0  0.7 0.8 0  0.75 0.8 0  0.8 0.8 0  0.85 0.8 0  0.9 0.8 0  0.95 0.8 0  1 0.8 0  0 0.85 0  0.05 0.85 0  0.1 0.85 0  0.15 0.85 0  0.2 0.85 0  0.25 0.85 0  0.3 0.85 0  0.35 0.85 0  0.4 0.85 0  0.45 0.85 0  0.5 0.85 0  0.55 0.85 0  0.6 0.85 0  0.65 0.85 0  0.7 0.85 0  0.75 0.85 0  0.8 0.85 0  0.85 0.85 0  0.9 0.85 0  0.95 0.85 0  1 0.85 0  0 0.9 0  0.05 0.9 0  0.1 0.9 0  0.15 0.9 0  0.2 0.9 0  0.25 0.9 0  0.3 0.9 0  0.35 0.9 0  0.4 0.9 0  0.45 0.9 0  0.5 0.9 0  0.55 0.9 0  0.6 0.9 0  0.65 0.9 0  0.7 0.9 0  0.75 0.9 0  0.8 0.9 0  0.85 0.9 0  0.9 0.9 0  0.95 0.9 0  1 0.9 0  0 0.95 0  0.05 0.95 0  0.1 0.95 0  0.15 0.95 0  0.2 0.95 0  0.25 0.95 0  0.3 0.95 0  0.35 0.95 0  0.4 0.95 0  0.45 0.95 0  0.5 0.95 0  0.55 0.95 0  0.6 0.95 0  0.65 0.95 0  0.7 0.95 0  0.75 0.95 0  0.8 0.95 0  0.85 0.95 0  0.9 0.95 0  0.95 0.95 0  1 0.95 0  0 1 0  0.05 1 0  0.1 1 0  0.15 1 0  0.2 1 0  0.25 1 0  0.3 1 0  0.35 1 0  0.4 1 0  0.45 1 0  0.5 1 0  0.55 1 0  0.6 1 0  0.65 1 0  0.7 1 0  0.75 1 0  0.8 1 0  0.85 1 0  0.9 1 0  0.95 1 0  1 1 0  </DataArray>
</Points>
<Cells>
[...]
<PointData  Scalars="u"> 
<DataArray  type="Float64"  Name="u"  format="ascii">0.0000000000000000e+00  0.0000000000000000e+00  0.0000000000000000e+00  0.0000000000000000e+00  0.0000000000000000e+00  0.0000000000000000e+00  0.0000000000000000e+00  0.0000000000000000e+00  0.0000000000000000e+00  0.0000000000000000e+00  0.0000000000000000e+00  0.0000000000000000e+00  0.0000000000000000e+00  0.0000000000000000e+00  0.0000000000000000e+00  0.0000000000000000e+00  0.0000000000000000e+00  0.0000000000000000e+00  0.0000000000000000e+00  0.0000000000000000e+00  0.0000000000000000e+00  9.7500000000000017e-02  4.0729826489613145e-02  1.2218055057278110e-02  2.2897830417831139e-02  3.5390395374233642e-02  4.8985017612506336e-02  6.2088678972453154e-02  7.3934081233846968e-02  8.4140386197858755e-02  9.2568465908731135e-02  9.9247602911978081e-02  1.0431602045175099e-01  1.0796935029782274e-01  1.1040547543831801e-01  1.1174815848557981e-01  1.1191381015915093e-01  1.1040552871308162e-01  1.0607223811727652e-01  9.6860035843684272e-02  8.2967728888285963e-02  6.8312461583833875e-02  1.9000000000000000e-01  1.1032684821598510e-01  7.4268082952541628e-02  8.0531871960791340e-02  9.5793121839459483e-02  1.1480191331448054e-01  1.3402832268346671e-01  1.5199754989462338e-01  1.6788057682649438e-01  1.8130876886484318e-01  1.9219876762264190e-01  2.0064694764393529e-01  2.0684171138034976e-01  2.1097306098218194e-01  2.1312215859400868e-01  2.1310871200325732e-01  2.1031313892507858e-01  2.0358915859212076e-01  1.9130978640588028e-01  1.7417105440704200e-01  1.5476010917650834e-01  2.7749999999999997e-01  1.9899330915593266e-01  1.5761168561856587e-01  1.5821101241445579e-01  1.7190698496415840e-01  1.9149858324768840e-01  2.1240996208038979e-01  2.3261299838172775e-01  2.5092578562212292e-01  2.6676201389470705e-01  2.7987555744397297e-01  2.9024046217811461e-01  2.9794730781260359e-01  3.0310408774522785e-01  3.0572970831777574e-01  3.0563146307633487e-01  3.0229390385848776e-01  2.9485891959288718e-01  2.8210463601366892e-01  2.6450370763013969e-01  2.4400476217862041e-01  3.5999999999999999e-01  2.8865190949620484e-01  2.4731378270490492e-01  2.4426385836717465e-01  2.5545753019107337e-01  2.7352919891118338e-01  2.9376262524018071e-01  3.1389370862086169e-01  3.3256688103744919e-01  3.4904685868892865e-01  3.6294626318836276e-01  3.7411175812513575e-01  3.8252141502157755e-01  3.8819504332701754e-01  3.9110570173687509e-01  3.9108715692257295e-01  3.8775227025516718e-01  3.8045751458291061e-01  3.6817441707637100e-01  3.5117360336526682e-01  3.3104101976241912e-01  4.3749999999999994e-01  3.7425652558974032e-01  3.3616523628024819e-01  3.3158688897477445e-01  3.4062197569550468e-01  3.5658221051500244e-01  3.7511770459071236e-01  3.9399707481160556e-01  4.1185251637625847e-01  4.2788618632285158e-01  4.4162447012334322e-01  4.5281838570724692e-01  4.6135403425965044e-01  4.6717966131038896e-01  4.7023529782578577e-01  4.7037840731697628e-01  4.6730854045539094e-01  4.6050525773875300e-01  4.4905943790465114e-01  4.3312984064929655e-01  4.1411726593404663e-01  5.1000000000000001e-01  4.5480073520043290e-01  4.2105201006979592e-01  4.1632314377078761e-01  4.2379451862089762e-01  4.3771362119238350e-01  4.5426388199710505e-01  4.7140716364895296e-01  4.8786809502005191e-01  5.0285907811189468e-01  5.1587547828434765e-01  5.2661282217261940e-01  5.3489545152727125e-01  5.4062035077369075e-01  5.4370150975144116e-01  5.4400662577084158e-01  5.4128366075971590e-01  5.3508695289434716e-01  5.2461200904455829e-01  5.0997452642390162e-01  4.9244873697236341e-01  5.7749999999999990e-01  5.2993086412204926e-01  5.0074410704821304e-01  4.9653284619163185e-01  5.0293161050160595e-01  5.1507770856908597e-01  5.2969336004381173e-01  5.4499856219926712e-01  5.5985819282294935e-01  5.7354066778403856e-01  5.8555060647256618e-01  5.9556223034925648e-01  6.0336547070863933e-01  6.0882393124219614e-01  6.1183108035483724e-01  6.1225575830705958e-01  6.0987374692774443e-01  6.0429542068735065e-01  5.9482218153752675e-01  5.8156260912795710e-01  5.6567986525526526e-01  6.4000000000000001e-01  5.9952748637099862e-01  5.7474929359169913e-01  5.7130612486401711e-01  5.7695245293806297e-01  5.8759610176426202e-01  6.0045210908441482e-01  6.1400142130853486e-01  6.2725891137435708e-01  6.3956953842731179e-01  6.5047006717161915e-01  6.5963659435740807e-01  6.6684474952155270e-01  6.7193883106509267e-01  6.7479773066210025e-01  6.7528899381386587e-01  6.7320883278415944e-01  6.6821847236843135e-01  6.5972662247742864e-01  6.4785046965514559e-01  6.3364557256083287e-01  6.9750000000000001e-01  6.6354952951218593e-01  6.4287006573069494e-01  6.4023981502469862e-01  6.4531691783313916e-01  6.5467802703876576e-01  6.6597463674755553e-01  6.7792369895848625e-01  6.8968042541382613e-01  7.0066910138655247e-01  7.1046762131328922e-01  7.1876664083844433e-01  7.2534025073429487e-01  7.3002369194883898e-01  7.3268735652587891e-01  7.3319933746118182e-01  7.3137561806492302e-01  7.2692764717601444e-01  7.1936976780985429e-01  7.0883341705731451e-01  6.9626794583735663e-01  7.5000000000000000e-01  7.2198538014524105e-01  7.0503639668819185e-01  7.0316888470710182e-01  7.0777541021856838e-01  7.1602369335387506e-01  7.2594868561820880e-01  7.3647205106508340e-01  7.4687191815424625e-01  7.5664488180328471e-01  7.6541007648390202e-01  7.7287762553880091e-01  7.7882698369817016e-01  7.8309117081639601e-01  7.8553744086207133e-01  7.8603786325481317e-01  7.8442985797174003e-01  7.8047506165977198e-01  7.7378892759025020e-01  7.6451823318295631e-01  7.5350919005040273e-01  7.9749999999999999e-01  7.7483552689972790e-01  7.6123246797009181e-01  7.6003907498586964e-01  7.6422924107040680e-01  7.7149809893156984e-01  7.8021809626380556e-01  7.8948620345620402e-01  7.9868449319839185e-01  8.0737102821787932e-01  8.1520164896600666e-01  8.2190601706652466e-01  8.2727179572039233e-01  8.3113385224341740e-01  8.3336037963663923e-01  8.3383068823272111e-01  8.3240531800716244e-01  8.2889518153808539e-01  8.2301027739932275e-01  8.1491199064463105e-01  8.0534876574700587e-01  8.4000000000000008e-01  8.2210460661275331e-01  8.1146442859331103e-01  8.1084617109083401e-01  8.1465462155268409e-01  8.2105542090892825e-01  8.2871845541943734e-01  8.3689028908880436e-01  8.4503940602005667e-01  8.5277406294631120e-01  8.5978047961292459e-01  8.6580543990148762e-01  8.7064517501438010e-01  8.7413841675191173e-01  8.7615694745146910e-01  8.7658960960687660e-01  8.7532080834613857e-01  8.7220857253115402e-01  8.6704950096400679e-01  8.6001822525565019e-01  8.5177284816902343e-01  8.7750000000000006e-01  8.6379822677879103e-01  8.5574613342371941e-01  8.5560659446058707e-01  8.5906247588075202e-01  8.6469541860558174e-01  8.7143636513051459e-01  8.7865915629979541e-01  8.8590352608796374e-01  8.9281772087724665e-01  8.9911190134486418e-01  9.0454664175321697e-01  9.0892578506458277e-01  9.1209256335161260e-01  9.1392373114168024e-01  9.1431878828824220e-01  9.1318558005008788e-01  9.1042590544568847e-01  9.0591407905415333e-01  8.9983645669771195e-01  8.9276977886867670e-01  9.1000000000000003e-01  8.9992168500006564e-01  8.9409281454185552e-01  8.9434336322148411e-01  8.9747763869747421e-01  9.0243888314044174e-01  9.0838460681055611e-01  9.1479613227644896e-01  9.2127154181589477e-01  9.2749040883941258e-01  9.3318110629411199e-01  9.3811465015191275e-01  9.4210100529749341e-01  9.4498771025873896e-01  9.4665690014283432e-01  9.4701881155380496e-01  9.4600323557448363e-01  9.4355141520139318e-01  9.3960583901981276e-01  9.3436304911318635e-01  9.2832848086618813e-01  9.3749999999999989e-01  9.3047950602899876e-01  9.2651843041235715e-01  9.2707960599492578e-01  9.2992834311637962e-01  9.3431418230106700e-01  9.3958745642847941e-01  9.4531882119275756e-01  9.5115360639356994e-01  9.5679555576170627e-01  9.6198650912150341e-01  9.6650499646625720e-01  9.7016555182571218e-01  9.7281940222548691e-01  9.7435380357575085e-01  9.7468899815286747e-01  9.7377437930581368e-01  9.7158555600498231e-01  9.6812317798565684e-01  9.6359244305614489e-01  9.5843823691312124e-01  9.6000000000000008e-01  9.5547531642142824e-01  9.5303470003374413e-01  9.5383576302045581e-01  9.5644113604221370e-01  9.6035012752070992e-01  9.6507223675158038e-01  9.7025028357863441e-01  9.7556704834020025e-01  9.8074454522445398e-01  9.8553430146881726e-01  9.8972000745552713e-01  9.9311939407870209e-01  9.9558660256758003e-01  9.9701333940406234e-01  9.9732855479982752e-01  9.9649827922315626e-01  9.9452686364355447e-01  9.9146277541348982e-01  9.8751832085265234e-01  9.8308901316499908e-01  9.7750000000000004e-01  9.7491193468715187e-01  9.7365088895362228e-01  9.7462856529795505e-01  9.7703862124153329e-01  9.8057235611288396e-01  9.8486460305641166e-01  9.8961369840241731e-01  9.9453096165410515e-01  9.9935173198540839e-01  1.0038342630540447e+00  1.0077656167429951e+00  1.0109656221889509e+00  1.0132905594108024e+00  1.0146356941771912e+00  1.0149370199822567e+00  1.0141738095637713e+00  1.0123731763881796e+00  1.0096208130872149e+00  1.0061345323888726e+00  1.0022719102978757e+00  9.8999999999999988e-01  9.8879130332648246e-01  9.8837384388390259e-01  9.8947096809015866e-01  9.9173857557432821e-01  9.9500161917956820e-01  9.9898600160442352e-01  1.0034292209930431e+00  1.0080627699984579e+00  1.0126310496603905e+00  1.0168967016434749e+00  1.0206488455567950e+00  1.0237085840403322e+00  1.0259336313640961e+00  1.0272218223303768e+00  1.0275143022767277e+00  1.0267999276683482e+00  1.0251223625551313e+00  1.0225936968832023e+00  1.0194357797225189e+00  1.0159796429344301e+00  9.9749999999999983e-01  9.9711443413269973e-01  9.9720970546309329e-01  9.9837193245259048e-01  1.0005538049208837e+00  1.0036529889104806e+00  1.0074523720717485e+00  1.0117121717441189e+00  1.0161761072845661e+00  1.0205937790177566e+00  1.0247303221510813e+00  1.0283759427641657e+00  1.0313524155221447e+00  1.0335182698745489e+00  1.0347728868558954e+00  1.0350605421152950e+00  1.0343758822377132e+00  1.0327726762415277e+00  1.0303785958013465e+00  1.0274181404622091e+00  1.0242067384208755e+00  1.0000000000000000e+00  9.9989590474495404e-01  1.0001561355312920e+00  1.0013373794283020e+00  1.0034912981084840e+00  1.0065356751711829e+00  1.0102733464732403e+00  1.0144720707226462e+00  1.0188795641963382e+00  1.0232471864588637e+00  1.0273408620299407e+00  1.0309511438327041e+00  1.0339000125433233e+00  1.0360462617070505e+00  1.0372897874995066e+00  1.0375759128028677e+00  1.0369012155401054e+00  1.0353228922573228e+00  1.0329738668586268e+00  1.0300795160532576e+00  1.0269480209060811e+00  </DataArray> 
</PointData> 
</Piece>
</UnstructuredGrid>
</VTKFile>