<?xml version="1.0"?>
<VTKFile type="UnstructuredGrid"  version="0.1"  >
<UnstructuredGrid>
<Piece  NumberOfPoints="441" NumberOfCells="800">
<Points>
<DataArray  type="Float64"  NumberOfComponents="3"  format="ascii">0 0 0  0.05 0 0  0.1 0 0  0.15 0 0  0.2 0 0  0.25 0 0  0.3 0 0  0.35 0 0  0.4 0 0  0.45 0 0  0.5 0 0  0.55 0 0  0.6 0 0  0.65 0 0  0.7 0 0  0.75 0 0  0.8 0 0  0.85 0 0  0.9 0 0  0.95 0 0  1 0 0  0 0.05 0  0.05 0.05 0  0.1 0.05 0  0.15 0.05 0  0.2 0.05 0  0.25 0.05 0  0.3 0.05 0  0.35 0.05 0  0.4 0.05 0  0.45 0.05 0  0.5 0.05 0  0.55 0.05 0  0.6 0.05 0  0.65 0.05 0  0.7 0.05 0  0.75 0.05 0  0.8 0.05 0  0.85 0.05 0  0.9 0.05 0  0.95 0.05 0  1 0.05 0  0 0.1 0  0.05 0.1 0  0.1 0.1 0  0.15 0.1 0  0.2 0.1 0  0.25 0.1 0  0.3 0.1 0  0.35 0.1 0  0.4 0.1 0  0.45 0.1 0  0.5 0.1 0  0.55 0.1 0  0.6 0.1 0  0.65 0.1 0  0.7 0.1 0  0.75 0.1 0  0.8 0.1 0  0.85 0.1 0  0.9 0.1 0  0.95 0.1 0  1 0.1 0  0 0.15 0  0.05 0.15 0  0.1 0.15 0  0.15 0.15 0  0.2 0.15 0  0.25 0.15 0  0.3 0.15 0  0.35 0.15 0  0.4 0.15 0  0.45 0.15 0  0.5 0.15 0  0.55 0.15 0  0.6 0.15 0  0.65 0.15 0  0.7 0.15 0  0.75 0.15 0  0.8 0.15 0  0.85 0.15 0  0.9 0.15 0  0.95 0.15 0  1 0.15 0  0 0.2 0  0.05 0.2 0  0.1 0.2 0  0.15 0.2 0  0.2 0.2 0  0.25 0.2 0  0.3 0.2 0  0.35 0.2 0  0.4 0.2 0  0.45 0.2 0  0.5 0.2 0  0.55 0.2 0  0.6 0.2 0  0.65 0.2 0  0.7 0.2 0  0.75 0.2 0  0.8 0.2 0  0.85 0.2 0  0.9 0.2 0  0.95 0.2 0  1 0.2 0  0 0.25 0  0.05 0.25 0  0.1 0.25 0  0.15 0.25 0  0.2 0.25 0  0.25 0.25 0  0.3 0.25 0  0.35 0.25 0  0.4 0.25 0  0.45 0.25 0  0.5 0.25 0  0.55 0.25 0  0.6 0.25 0  0.65 0.25 0  0.7 0.25 0  0.75 0.25 0  0.8 0.25 0  0.85 0.25 0  0.9 0.25 0  0.95 0.25 0  1 0.25 0  0 0.3 0  0.05 0.3 0  0.1 0.3 0  0.15 0.3 0  0.2 0.3 0  0.25 0.3 0  0.3 0.3 0  0.35 0.3 0  0.4 0.3 0  0.45 0.3 0  0.5 0.3 0  0.55 0.3 0  0.6 0.3 0  0.65 0.3 0  0.7 0.3 0  0.75 0.3 0  0.8 0.3 0  0.85 0.3 0  0.9 0.3 0  0.95 0.3 0  1 0.3 0  0 0.35 0  0.05 0.35 0  0.1 0.35 0  0.15 0.35 0  0.2 0.35 0  0.25 0.35 0  0.3 0.35 0  0.35 0.35 0  0.4 0.35 0  0.45 0.35 0  0.5 0.35 0  0.55 0.35 0  0.6 0.35 0  0.65 0.35 0  0.7 0.35 0  0.75 0.35 0  0.8 0.35 0  0.85 0.35 0  0.9 0.35 0  0.95 0.35 0  1 0.35 0  0 0.4 0  0.05 0.4 0  0.1 0.4 0  0.15 0.4 0  0.2 0.4 0  0.25 0.4 0  0.3 0.4 0  0.35 0.4 0  0.4 0.4 0  0.45 0.4 0  0.5 0.4 0  0.55 0.4 0  0.6 0.4 0  0.65 0.4 0  0.7 0.4 0  0.75 0.4 0  0.8 0.4 0  0.85 0.4 0  0.9 0.4 0  0.95 0.4 0  1 0.4 0  0 0.45 0  0.05 0.45 0  0.1 0.45 0  0.15 0.45 0  0.2 0.45 0  0.25 0.45 0  0.3 0.45 0  0.35 0.45 0  0.4 0.45 0  0.45 0.45 0  0.5 0.45 0  0.55 0.45 0  0.6 0.45 0  0.65 0.45 0  0.7 0.45 0  0.75 0.45 0  0.8 0.45 0  0.85 0.45 0  0.9 0.45 0  0.95 0.45 0  1 0.45 0  0 0.5 0  0.05 0.5 0  0.1 0.5 0  0.15 0.5 0  0.2 0.5 0  0.25 0.5 0  0.3 0.5 0  0.35 0.5 0  0.4 0.5 0  0.45 0.5 0  0.5 0.5 0  0.55 0.5 0  0.6 0.5 0  0.65 0.5 0  0.7 0.5 0  0.75 0.5 0  0.8 0.5 0  0.85 0.5 0  0.9 0.5 0  0.95 0.5 0  1 0.5 0  0 0.55 0  0.05 0.55 0  0.1 0.55 0  0.15 0.55 0  0.2 0.55 0  0.25 0.55 0  0.3 0.55 0  0.35 0.55 0  0.4 0.55 0  0.45 0.55 0  0.5 0.55 0  0.55 0.55 0  0.6 0.55 0  0.65 0.55 0  0.7 0.55 0  0.75 0.55 0  0.8 0.55 0  0.85 0.55 0  0.9 0.55 0  0.95 0.55 0  1 0.55 0  0 0.6 0  0.05 0.6 0  0.1 0.6 0  0.15 0.6 0  0.2 0.6 0  0.25 0.6 0  0.3 0.6 0  0.35 0.6 0  0.4 0.6 0  0.45 0.6 0  0.5 0.6 0  0.55 0.6 0  0.6 0.6 0  0.65 0.6 0  0.7 0.6 0  0.75 0.6 0  0.8 0.6 0  0.85 0.6 0  0.9 0.6 0  0.95 0.6 0  1 0.6 0  0 0.65 0  0.05 0.65 0  0.1 0.65 0  0.15 0.65 0  0.2 0.65 0  0.25 0.65 0  0.3 0.65 0  0.35 0.65 0  0.4 0.65 0  0.45 0.65 0  0.5 0.65 0  0.55 0.65 0  0.6 0.65 0  0.65 0.65 0  0.7 0.65 0  0.75 0.65 0  0.8 0.65 0  0.85 0.65 0  0.9 0.65 0  0.95 0.65 0  1 0.65 0  0 0.7 0  0.05 0.7 0  0.1 0.7 0  0.15 0.7 0  0.2 0.7 0  0.25 0.7 0  0.3 0.7 0  0.35 0.7 0  0.4 0.7 0  0.45 0.7 0  0.5 0.7 0  0.55 0.7 0  0.6 0.7 0  0.65 0.7 0  0.7 0.7 0  0.75 0.7 0  0.8 0.7 0  0.85 0.7 0  0.9 0.7 0  0.95 0.7 0  1 0.7 0  0 0.75 0  0.05 0.75 0  0.1 0.75 0  0.15 0.75 0  0.2 0.75 0  0.25 0.75 0  0.3 0.75 0  0.35 0.75 0  0.4 0.75 0  0.45 0.75 0  0.5 0.75 0  0.55 0.75 0  0.6 0.75 0  0.65 0.75 0  0.7 0.75 0  0.75 0.75 0  0.8 0.75 0  0.85 0.75 0  0.9 0.75 0  0.95 0.75 0  1 0.75 0  0 0.8 0  0.05 0.8 0  0.1 0.8 0  0.15 0.8 0  0.2 0.8 0  0.25 0.8 0  0.3 0.8 0  0.35 0.8 0  0.4 0.8 0  0.45 0.8 0  0.5 0.8 0  0.55 0.8 0  0.6 0.8 0  0.65 0.8 0  0.7 0.8 0  0.75 0.8 0  0.8 0.8 0  0.85 0.8 0  0.9 0.8 0  0.95 0.8 0  1 0.8 0  0 0.85 0  0.05 0.85 0  0.1 0.85 0  0.15 0.85 0  0.2 0.85 0  0.25 0.85 0  0.3 0.85 0  0.35 0.85 0  0.4 0.85 0  0.45 0.85 0  0.5 0.85 0  0.55 0.85 0  0.6 0.85 0  0.65 0.85 0  0.7 0.85 0  0.75 0.85 0  0.8 0.85 0  0.85 0.85 0  0.9 0.85 0  0.95 0.85 0  1 0.85 0  0 0.9 0  0.05 0.9 0  0.1 0.9 0  0.15 0.9 0  0.2 0.9 0  0.25 0.9 0  0.3 0.9 0  0.35 0.9 0  0.4 0.9 0  0.45 0.9 0  0.5 0.9 0  0.55 0.9 0  0.6 0.9 0  0.65 0.9 0  0.7 0.9 0  0.75 0.9 0  0.8 0.9 0  0.85 0.9 0  0.9 0.9 0  0.95 0.9 0  1 0.9 0  0 0.95 0  0.05 0.95 0  0.1 0.95 0  0.15 0.95 0  0.2 0.95 0  0.25 0.95 0  0.3 0.95 0  0.35 0.95 0  0.4 0.95 0  0.45 0.95 0  0.5 0.95 0  0.55 0.95 0  0.6 0.95 0  0.65 0.95 0  0.7 0.95 0  0.75 0.95 0  0.8 0.95 0  0.85 0.95 0  0.9 0.95 0  0.95 0.95 0  1 0.95 0  0 1 0  0.05 1 0  0.1 1 0  0.15 1 0  0.2 1 0  0.25 1 0  0.3 1 0  0.35 1 0  0.4 1 0  0.45 1 0  0.5 1 0  0.55 1 0  0.6 1 0  0.65 1 0  0.7 1 0  0.75 1 0  0.8 1 0  0.85 1 0  0.9 1 0  0.95 1 0  1 1 0  </DataArray>
</Points>
<Cells>
[...]
<PointData  Scalars="u"> 
<DataArray  type="Float64"  Name="u"  format="ascii">-4.7245951308345475e+00  -1.6381878583942051e+00  3.2115000162576751e-01  1.3610182737722492e+00  2.0913503527767192e+00  2.5714452612407230e+00  2.8026970288137614e+00  2.8370911345712364e+00  2.7235867285804121e+00  2.5056931640623143e+00  2.2201558495392746e+00  1.8954768880637707e+00  1.5512509263768484e+00  1.1971760111976175e+00  8.3198009414464535e-01  4.4008731725317474e-01  -6.9196327099951228e-03  -5.3013609918017368e-01  -1.1266146909306116e+00  -1.3097314268357001e+00  -4.4697218528850119e-01  -4.7763931570786706e+00  -2.4151602620796542e+00  1.3276248582062786e-01  1.2188545740233725e+00  1.9791159240490819e+00  2.4040006065911865e+00  2.5888776464488203e+00  2.6005398517467770e+00  2.4878106462876319e+00  2.2896823292293660e+00  2.0362607783640998e+00  1.7495632221822108e+00  1.4441789242347443e+00  1.1273877152523191e+00  7.9895087818862820e-01  4.5078923930644232e-01  7.0155594409525013e-02  -3.4926214969330172e-01  -7.8424234942800397e-01  -1.0082438151999493e+00  -7.9660358612057025e-01  -3.6506398287043922e+00  -2.2171886977289499e+00  2.9591843744968443e-01  1.3289975894311410e+00  1.9912364875774973e+00  2.3191592271232229e+00  2.4444607189736947e+00  2.4250555898791823e+00  2.3055320268599466e+00  2.1183097974785126e+00  1.8870275365394260e+00  1.6285100501086414e+00  1.3538562895861646e+00  1.0689166741126099e+00  7.7454747761626552e-01  4.6667387437180963e-01  1.3757439431829310e-01  -2.1788915507014295e-01  -6.0670018962017391e-01  -8.9613552980411182e-01  -9.5637690507102280e-01  -2.6911032484118182e+00  -1.6488221326440624e+00  5.7430124469467347e-01  1.4838310945541031e+00  2.0273719781419715e+00  2.2684757005318272e+00  2.3382384759058494e+00  2.2885801567816921e+00  2.1603514274832354e+00  1.9794170152872286e+00  1.7642104219540244e+00  1.5275779505174616e+00  1.2779712710096580e+00  1.0200116455568291e+00  7.5470069200245049e-01  4.7904587293486778e-01  1.8595556716515299e-01  -1.3388900367987377e-01  -4.9902794628435410e-01  -8.1106684854854150e-01  -9.4746524005701704e-01  -1.9645017594128131e+00  -1.0438233109502524e+00  8.5370472825395294e-01  1.6361222424019253e+00  2.0679888523552794e+00  2.2337188149145319e+00  2.2544921521998553e+00  2.1789923522717065e+00  2.0426121539787148e+00  1.8657210685618952e+00  1.6627973343494853e+00  1.4435717646537682e+00  1.2144004679316638e+00  9.7874539080200196e-01  7.3720728508576971e-01  4.8682171631400345e-01  2.2017630910001801e-01  -7.3874066548461959e-02  -4.1687917812323866e-01  -7.2686136160965975e-01  -8.9444353066059146e-01  -1.3576333887113614e+00  -5.2499830419773619e-01  1.1031384857783166e+00  1.7596971228094347e+00  2.0937602960544459e+00  2.1988618905365960e+00  2.1814372337348757e+00  2.0864929090092037e+00  1.9440745434332756e+00  1.7707421486488568e+00  1.5779393565182958e+00  1.3730147719240375e+00  1.1606954462679915e+00  9.4341764331084188e-01  7.2124770308161257e-01  4.9104087644209832e-01  2.4538178585659043e-01  -2.7025606495819351e-02  -3.4689440579603914e-01  -6.4377026509525892e-01  -8.1920427743909940e-01  -8.3386294290507612e-01  -9.4930654181133195e-02  1.3056068573187445e+00  1.8466870782316596e+00  2.1018939427422216e+00  2.1598413303548551e+00  2.1138968122298354e+00  2.0052122404771429e+00  1.8593008902096197e+00  1.6898638740233429e+00  1.5059481123821847e+00  1.3131425140276527e+00  1.1149292943269016e+00  9.1292173371525664e-01  7.0674827738398671e-01  4.9322011082145661e-01  2.6533344994042857e-01  1.2595356132940848e-02  -2.8355129832055637e-01  -5.6207589727502982e-01  -7.3600917364898000e-01  -3.7618208319082064e-01  2.6708842032315405e-01  1.4620476314954338e+00  1.9024995621199414e+00  2.0938902013010829e+00  2.1151359384297099e+00  2.0488192455655780e+00  1.9314041037465757e+00  1.7845363088361652e+00  1.6196389152780364e+00  1.4439332815358934e+00  1.2617244035799033e+00  1.0755663350133262e+00  8.8647581910752438e-01  6.9381267199356766e-01  4.9452686903066984e-01  2.8230122009180580e-01  4.7841799555668536e-02  -2.2489013996646154e-01  -4.8325804479287421e-01  -6.5159046595151482e-01  2.8344500693936511e-02  5.7509522715408590e-01  1.5811232581901511e+00  1.9340177311049045e+00  2.0726448113664109e+00  2.0656947619185941e+00  1.9853845210424648e+00  1.8631505769224121e+00  1.7174085010466658e+00  1.5576865649885645e+00  1.3897979782006495e+00  1.2170929569986657e+00  1.0414565123750277e+00  8.6351093692052394e-01  6.8250615330198849e-01  4.9567347039004417e-01  2.9751728100811775e-01  8.0062545615686986e-02  -1.7022112253883201e-01  -4.0834467405398617e-01  -5.6944174474178100e-01  3.8774010934839076e-01  8.3954565881872079e-01  1.6717327414328367e+00  1.9475142388113529e+00  2.0419405560663413e+00  2.0133203249732867e+00  1.9236320670607319e+00  1.7994923170712620e+00  1.6564600773916605e+00  1.5024139555467821e+00  1.3420577264885944e+00  1.1780257161629277e+00  1.0117348189660635e+00  8.4357008905643649e-01  6.7279374037793171e-01  4.9700680602689917e-01  3.1157755529747505e-01  1.0983871712518289e-01  -1.1937833497306659e-01  -3.3808127605105409e-01  -4.9154417083084284e-01  7.0732589906063903e-01  1.0680568123452401e+00  1.7408748183178937e+00  1.9483532354359869e+00  2.0053445628823137e+00  1.9598795066506762e+00  1.8641174664077438e+00  1.7401455008940465e+00  1.6008972967161150e+00  1.4528151852516509e+00  1.2997054388183307e+00  1.1436552052703679e+00  9.8575792254245997e-01  8.2627461083313603e-01  6.6456271240091058e-01  4.9863626569715813e-01  3.2471481708826566e-01  1.3736937661333501e-01  -7.2400720263306184e-02  -2.7298303063262475e-01  -4.1901766498247167e-01  9.9071563581437039e-01  1.2659930476232326e+00  1.7938747213509090e+00  1.9408439832174817e+00  1.9658493750604520e+00  1.9071297221558041e+00  1.8076165134537490e+00  1.6851760448993005e+00  1.5503390340901897e+00  1.4082897388845683e+00  1.2620828132759914e+00  1.1133791118001610e+00  9.6304994679619282e-01  8.1130895911087642e-01  6.5765825725359461e-01  5.0053553891546620e-01  3.3696749449332941e-01  1.6266826725466041e-01  -2.9403443801595822e-02  -2.1340926244290304e-01  -3.5252310482148858e-01  1.2403791987632846e+00  1.4371428336376275e+00  1.8346691682999630e+00  1.9282860463896807e+00  1.9258641382667185e+00  1.8566083711354568e+00  1.7549302346586479e+00  1.6348330486807598e+00  1.5046697338531747e+00  1.3685135104920936e+00  1.2287792556674806e+00  1.0867901547006116e+00  9.4326403223580246e-01  7.9841545724460516e-01  6.5191516611527589e-01  5.0261269580018930e-01  3.4827931190721689e-01  1.8566571691695402e-01  9.4779558918654475e-03  -1.5961725721290781e-01  -2.9246123779446759e-01  1.4580258725418325e+00  1.5841779233669664e+00  1.8661226818701895e+00  1.9131630699123607e+00  1.8872815228697630e+00  1.8095952923029153e+00  1.7068033992698133e+00  1.5894455189056924e+00  1.4639250407260889e+00  1.3333383239778587e+00  1.1995534082679340e+00  1.0636211527390340e+00  9.2615198740556415e-01  7.8738936242777646e-01  6.4717829498507773e-01  5.0475304112767461e-01  3.5855565160541814e-01  2.0626136024132480e-01  4.4111324173584862e-02  -1.1179719025405922e-01  -2.3908617531342899e-01  1.6448451277496943e+00  1.7089825919573258e+00  1.8903051227442305e+00  1.8973209707464835e+00  1.8515582851951213e+00  1.7671243843501114e+00  1.6638882642576385e+00  1.5493562500893958e+00  1.4282184976597798e+00  1.3027243702778217e+00  1.1742762726404332e+00  1.0437034889151349e+00  9.1154038347479427e-01  7.7807294839451890e-01  6.4331336710956000e-01  5.0684306041234195e-01  3.6769390635400140e-01  2.2435074486826884e-01  7.4377796061568621e-02  -7.0094067179117120e-02  -1.9256795548610989e-01  1.8016715087220101e+00  1.8128837950229584e+00  1.9087026900813662e+00  1.8821177447010757e+00  1.8197996486809609e+00  1.7300126276112824e+00  1.6267320984154228e+00  1.5148856391434640e+00  1.3976954664409293e+00  1.2766929536536533e+00  1.1528898947783865e+00  1.0269360995584940e+00  8.9931145732841011e-01  7.7034851560006623e-01  6.4021079005587556e-01  5.0878222967809017e-01  3.7559906385901981e-01  2.3983863442984982e-01  1.0017558895416125e-01  -3.4620998676904012e-02  -1.5302705992921650e-01  1.9290714323252551e+00  1.8968123826367471e+00  1.9223751853775233e+00  1.8685411059615769e+00  1.7928317042758264e+00  1.6988914209351755e+00  1.5957779434919115e+00  1.4863129406973039e+00  1.3725040745012482e+00  1.2552948047437567e+00  1.1353785237486558e+00  1.0132625442741623e+00  8.8938770772290188e-01  7.6413081792165771e-01  6.3778499934449251e-01  5.1048756297078923e-01  3.8219004958783198e-01  2.5264284839055667e-01  1.2141939631752044e-01  -5.4671163822318826e-03  -1.2055283788963456e-01  2.0274619689094089e+00  1.9614250275977061e+00  1.9320597321261146e+00  1.8573001047753461e+00  1.7712602944087423e+00  1.6742371490724746e+00  1.5713724206110022e+00  1.4638686892415420e+00  1.3527787908654514e+00  1.2385903701857188e+00  1.1217494635102667e+00  1.0026550358419786e+00  8.8172055536939475e-01  7.5936070391033383e-01  6.3597274063155562e-01  5.1189500785969755e-01  3.8740211354428744e-01  2.6269957274115496e-01  1.3804679451427310e-01  1.7300409451647725e-02  -9.5213500013488508e-02  2.0972531380241897e+00  2.0070659812109644e+00  1.9382858692766431e+00  1.8488874490282181e+00  1.7555157755144608e+00  1.6563924707686046e+00  1.5537719468052058e+00  1.4477285967892153e+00  1.3386278229572093e+00  1.2266340443872636e+00  1.1120171943247423e+00  9.9510032651518088e-01  8.7627901411468756e-01  7.5599680202324715e-01  6.3472730714549008e-01  5.1295488226276020e-01  3.9118446912034222e-01  2.6995871939398658e-01  1.4999561445408841e-01  3.3613739724798634e-02  -7.7061653140140032e-02  2.1369693600544180e+00  2.0342878451460336e+00  1.9413328341637082e+00  1.8436450264326107e+00  1.7458740545483460e+00  1.6456015394293759e+00  1.5431574930557421e+00  1.4380261369059943e+00  1.3301384821509203e+00  1.2194769518442441e+00  1.1062044406354195e+00  9.9060077044454387e-01  8.7305165084405845e-01  7.5401917908132821e-01  6.3402429556818152e-01  5.1364052005118011e-01  3.9351191614762332e-01  2.7439213247137983e-01  1.5724545801651579e-01  4.3503671028044921e-02  -6.6113839031659669e-02  2.1543196667611433e+00  2.0428608851852124e+00  1.9417245279026438e+00  1.8416606405156217e+00  1.7425882951670233e+00  1.6419523057750303e+00  1.5396254335742130e+00  1.4348057333036166e+00  1.3273347878513986e+00  1.2171205855541540e+00  1.1042986320927608e+00  9.8913346719766893e-01  8.7200907015754647e-01  7.5339426537398424e-01  6.3382695824598090e-01  5.1391152616988900e-01  3.9434045021417757e-01  2.7594340504405362e-01  1.5975031755422187e-01  4.6832064753833981e-02  -6.2592559624776403e-02  </DataArray> 
</PointData> 
</Piece>
</UnstructuredGrid>
</VTKFile>