<?xml version="1.0"?>
<VTKFile type="UnstructuredGrid"  version="0.1"  >
<UnstructuredGrid>
<Piece  NumberOfPoints="441" NumberOfCells="800">
<Points>
<DataArray  type="Float64"  NumberOfComponents="3"  format="ascii">0 0 0  0.05 0 0  0.1 0 0  0.15 0 0  0.2 0 0  0.25 0 0  0.3 0 0  0.35 0 0  0.4 0 0  0.45 0 0  0.5 0 0  0.55 0 0  0.6 0 0  0.65 0 0  0.7 0 0  0.75 0 0  0.8 0 0  0.85 0 0  0.9 0 0  0.95 0 0  1 0 0  0 0.05 0  0.05 0.05 0  0.1 0.05 0  0.15 0.05 0  0.2 0.05 0  0.25 0.05 0  0.3 0.05 0  0.35 0.05 0  0.4 0.05 0  0.45 0.05 0  0.5 0.05 0  0.55 0.05 0  0.6 0.05 0  0.65 0.05 0  0.7 0.05 0  0.75 0.05 0  0.8 0.05 0  0.85 0.05 0  0.9 0.05 0  0.95 0.05 0  1 0.05 0  0 0.1 0  0.05 0.1 0  0.1 0.1 0  0.15 0.1 0  0.2 0.1 0  0.25 0.1 0  0.3 0.1 0  0.35 0.1 0  0.4 0.1 0  0.45 0.1 0  0.5 0.1 0  0.55 0.1 0  0.6 0.1 0  0.65 0.1 0  0.7 0.1 0  0.75 0.1 0  0.8 0.1 0  0.85 0.1 0  0.9 0.1 0  0.95 0.1 0  1 0.1 0  0 0.15 0  0.05 0.15 0  0.1 0.15 0  0.15 0.15 0  0.2 0.15 0  0.25 0.15 0  0.3 0.15 0  0.35 0.15 0  0.4 0.15 0  0.45 0.15 0  0.5 0.15 0  0.55 0.15 0  0.6 0.15 0  0.65 0.15 0  0.7 0.15 0  0.75 0.15 0  0.8 0.15 0  0.85 0.15 0  0.9 0.15 0  0.95 0.15 0  1 0.15 0  0 0.2 0  0.05 0.2 0  0.1 0.2 0  0.15 0.2 0  0.2 0.2 0  0.25 0.2 0  0.3 0.2 0  0.35 0.2 0  0.4 0.2 0  0.45 0.2 0  0.5 0.2 0  0.55 0.2 0  0.6 0.2 0  0.65 0.2 0  0.7 0.2 0  0.75 0.2 0  0.8 0.2 0  0.85 0.2 0  0.9 0.2 0  0.95 0.2 0  1 0.2 0  0 0.25 0  0.05 0.25 0  0.1 0.25 0  0.15 0.25 0  0.2 0.25 0  0.25 0.25 0  0.3 0.25 0  0.35 0.25 0  0.4 0.25 0  0.45 0.25 0  0.5 0.25 0  0.55 0.25 0  0.6 0.25 0  0.65 0.25 0  0.7 0.25 0  0.75 0.25 0  0.8 0.25 0  0.85 0.25 0  0.9 0.25 0  0.95 0.25 0  1 0.25 0  0 0.3 0  0.05 0.3 0  0.1 0.3 0  0.15 0.3 0  0.2 0.3 0  0.25 0.3 0  0.3 0.3 0  0.35 0.3 0  0.4 0.3 0  0.45 0.3 0  0.5 0.3 0  0.55 0.3 0  0.6 0.3 0  0.65 0.3 0  0.7 0.3 0  0.75 0.3 0  0.8 0.3 0  0.85 0.3 0  0.9 0.3 0  0.95 0.3 0  1 0.3 0  0 0.35 0  0.05 0.35 0  0.1 0.35 0  0.15 0.35 0  0.2 0.35 0  0.25 0.35 0  0.3 0.35 0  0.35 0.35 0  0.4 0.35 0  0.45 0.35 0  0.5 0.35 0  0.55 0.35 0  0.6 0.35 0  0.65 0.35 0  0.7 0.35 0  0.75 0.35 0  0.8 0.35 0  0.85 0.35 0  0.9 0.35 0  0.95 0.35 0  1 0.35 0  0 0.4 0  0.05 0.4 0  0.1 0.4 0  0.15 0.4 0  0.2 0.4 0  0.25 0.4 0  0.3 0.4 0  0.35 0.4 0  0.4 0.4 0  0.45 0.4 0  0.5 0.4 0  0.55 0.4 0  0.6 0.4 0  0.65 0.4 0  0.7 0.4 0  0.75 0.4 0  0.8 0.4 0  0.85 0.4 0  0.9 0.4 0  0.95 0.4 0  1 0.4 0  0 0.45 0  0.05 0.45 0  0.1 0.45 0  0.15 0.45 0  0.2 0.45 0  0.25 0.45 0  0.3 0.45 0  0.35 0.45 0  0.4 0.45 0  0.45 0.45 0  0.5 0.45 0  0.55 0.45 0  0.6 0.45 0  0.65 0.45 0  0.7 0.45 0  0.75 0.45 0  0.8 0.45 0  0.85 0.45 0  0.9 0.45 0  0.95 0.45 0  1 0.45 0  0 0.5 0  0.05 0.5 0  0.1 0.5 0  0.15 0.5 0  0.2 0.5 0  0.25 0.5 0  0.3 0.5 0  0.35 0.5 0  0.4 0.5 0  0.45 0.5 0  0.5 0.5 0  0.55 0.5 0  0.6 0.5 0  0.65 0.5 0  0.7 0.5 0  0.75 0.5 0  0.8 0.5 0  0.85 0.5 0  0.9 0.5 0  0.95 0.5 0  1 0.5 0  0 0.55 0  0.05 0.55 0  0.1 0.55 0  0.15 0.55 0  0.2 0.55 0  0.25 0.55 0  0.3 0.55 0  0.35 0.55 0  0.4 0.55 0  0.45 0.55 0  0.5 0.55 0  0.55 0.55 0  0.6 0.55 0  0.65 0.55 0  0.7 0.55 0  0.75 0.55 0  0.8 0.55 0  0.85 0.55 0  0.9 0.55 0  0.95 0.55 0  1 0.55 0  0 0.6 0  0.05 0.6 0  0.1 0.6 0  0.15 0.6 0  0.2 0.6 0  0.25 0.6 0  0.3 0.6 0  0.35 0.6 0  0.4 0.6 0  0.45 0.6 0  0.5 0.6 0  0.55 0.6 0  0.6 0.6 0  0.65 0.6 0  0.7 0.6 0  0.75 0.6 0  0.8 0.6 0  0.85 0.6 0  0.9 0.6 0  0.95 0.6 0  1 0.6 0  0 0.65 0  0.05 0.65 0  0.1 0.65 0  0.15 0.65 0  0.2 0.65 0  0.25 0.65 0  0.3 0.65 0  0.35 0.65 0  0.4 0.65 0  0.45 0.65 0  0.5 0.65 0  0.55 0.65 0  0.6 0.65 0  0.65 0.65 0  0.7 0.65 0  0.75 0.65 0  0.8 0.65 0  0.85 0.65 0  0.9 0.65 0  0.95 0.65 0  1 0.65 0  0 0.7 0  0.05 0.7 0  0.1 0.7 0  0.15 0.7 0  0.2 0.7 0  0.25 0.7 0  0.3 0.7 0  0.35 0.7 0  0.4 0.7 0  0.45 0.7 0  0.5 0.7 0  0.55 0.7 0  0.6 0.7 0  0.65 0.7 0  0.7 0.7 0  0.75 0.7 0  0.8 0.7 0  0.85 0.7 0  0.9 0.7 0  0.95 0.7 0  1 0.7 0  0 0.75 0  0.05 0.75 0  0.1 0.75 0  0.15 0.75 0  0.2 0.75 0  0.25 0.75 0  0.3 0.75 0  0.35 0.75 0  0.4 0.75 0  0.45 0.75 0  0.5 0.75 0  0.55 0.75 0  0.6 0.75 0  0.65 0.75 0  0.7 0.75 0  0.75 0.75 0  0.8 0.75 0  0.85 0.75 0  0.9 0.75 0  0.95 0.75 0  1 0.75 0  0 0.8 0  0.05 0.8 0  0.1 0.8 0  0.15 0.8 0  0.2 0.8 0  0.25 0.8 0  0.3 0.8 0  0.35 0.8 0  0.4 0.8 0  0.45 0.8 0  0.5 0.8 0  0.55 0.8 0  0.6 0.8 0  0.65 0.8 0  0.7 0.8 0  0.75 0.8 0  0.8 0.8 0  0.85 0.8 0  0.9 0.8 0  0.95 0.8 0  1 0.8 0  0 0.85 0  0.05 0.85 0  0.1 0.85 0  0.15 0.85 0  0.2 0.85 0  0.25 0.85 0  0.3 0.85 0  0.35 0.85 0  0.4 0.85 0  0.45 0.85 0  0.5 0.85 0  0.55 0.85 0  0.6 0.85 0  0.65 0.85 0  0.7 0.85 0  0.75 0.85 0  0.8 0.85 0  0.85 0.85 0  0.9 0.85 0  0.95 0.85 0  1 0.85 0  0 0.9 0  0.05 0.9 0  0.1 0.9 0  0.15 0.9 0  0.2 0.9 0  0.25 0.9 0  0.3 0.9 0  0.35 0.9 0  0.4 0.9 0  0.45 0.9 0  0.5 0.9 0  0.55 0.9 0  0.6 0.9 0  0.65 0.9 0  0.7 0.9 0  0.75 0.9 0  0.8 0.9 0  0.85 0.9 0  0.9 0.9 0  0.95 0.9 0  1 0.9 0  0 0.95 0  0.05 0.95 0  0.1 0.95 0  0.15 0.95 0  0.2 0.95 0  0.25 0.95 0  0.3 0.95 0  0.35 0.95 0  0.4 0.95 0  0.45 0.95 0  0.5 0.95 0  0.55 0.95 0  0.6 0.95 0  0.65 0.95 0  0.7 0.95 0  0.75 0.95 0  0.8 0.95 0  0.85 0.95 0  0.9 0.95 0  0.95 0.95 0  1 0.95 0  0 1 0  0.05 1 0  0.1 1 0  0.15 1 0  0.2 1 0  0.25 1 0  0.3 1 0  0.35 1 0  0.4 1 0  0.45 1 0  0.5 1 0  0.55 1 0  0.6 1 0  0.65 1 0  0.7 1 0  0.75 1 0  0.8 1 0  0.85 1 0  0.9 1 0  0.95 1 0  1 1 0  </DataArray>
</Points>
<Cells>
[...]
<PointData  Scalars="u"> 
<DataArray  type="Float64"  Name="u"  format="ascii">0.0000000000000000e+00  0.0000000000000000e+00  0.0000000000000000e+00  0.0000000000000000e+00  0.0000000000000000e+00  0.0000000000000000e+00  0.0000000000000000e+00  0.0000000000000000e+00  0.0000000000000000e+00  0.0000000000000000e+00  0.0000000000000000e+00  0.0000000000000000e+00  0.0000000000000000e+00  0.0000000000000000e+00  0.0000000000000000e+00  0.0000000000000000e+00  0.0000000000000000e+00  0.0000000000000000e+00  0.0000000000000000e+00  0.0000000000000000e+00  0.0000000000000000e+00  0.0000000000000000e+00  -1.6431668859128393e-02  -8.9781526051775015e-03  -4.9814530497085882e-03  1.5035922585796598e-03  8.3408503390538808e-03  1.4088041576898729e-02  1.7943971252167096e-02  1.9744484292132672e-02  1.9675335904313165e-02  1.8083639560926436e-02  1.5349711018262690e-02  1.1807256649775711e-02  7.7002136067547272e-03  3.1703174361691340e-03  -1.7160586201864934e-03  -6.8502941465066556e-03  -1.1799474856104141e-02  -1.5375029372037186e-02  -1.5568568069737445e-02  -1.5448444529260410e-02  0.0000000000000000e+00  -2.4115683443972032e-02  -2.0869777663831808e-02  -1.1949641060625096e-02  -5.0698804098842846e-04  1.1001723024956207e-02  2.0618934981324465e-02  2.7299743072403640e-02  3.0757974069041221e-02  3.1200153757246683e-02  2.9093405142285450e-02  2.4984573339293638e-02  1.9386229141442508e-02  1.2719827648419094e-02  5.3133005113147050e-03  -2.5329924180631093e-03  -1.0382676325158524e-02  -1.7414250082751007e-02  -2.2266936988903783e-02  -2.3957316657636563e-02  -2.4819203228472659e-02  0.0000000000000000e+00  -2.5293678118363458e-02  -2.4910107496855030e-02  -1.4775859134052792e-02  -1.2778686267502233e-03  1.2309100239284323e-02  2.3802268604453898e-02  3.2005185336849006e-02  3.6502582345812273e-02  3.7431348840859219e-02  3.5244086917423603e-02  3.0522853586250738e-02  2.3858385676168388e-02  1.5789924522301248e-02  6.8051938442118690e-03  -2.5967478687239959e-03  -1.1785729330292254e-02  -1.9884435917433736e-02  -2.5841796340337668e-02  -2.9051056845575643e-02  -3.0468006438887977e-02  0.0000000000000000e+00  -2.2689478993090376e-02  -2.3373095359960155e-02  -1.3608166288166992e-02  -1.2785639852526610e-05  1.3853320171971897e-02  2.5728810509986093e-02  3.4351808640154011e-02  3.9222114513325135e-02  4.0386073910507650e-02  3.8224399212804100e-02  3.3285714923182039e-02  2.6171911784733909e-02  1.7477195224853498e-02  7.7792489299785906e-03  -2.3239523845785723e-03  -1.2150073364755338e-02  -2.0893221855654988e-02  -2.7681774383534002e-02  -3.1849420500874748e-02  -3.3456450453667741e-02  0.0000000000000000e+00  -1.8930284782251870e-02  -1.9235775801932621e-02  -1.0052952748934404e-02  2.8049925655992858e-03  1.5954239977341578e-02  2.7272725004500668e-02  3.5551076355142291e-02  4.0264071928114632e-02  4.1385410736018147e-02  3.9215255267038493e-02  3.4240263867778564e-02  2.7031562204365065e-02  1.8185202824022494e-02  8.3024102727452670e-03  -1.9980481134358099e-03  -1.2049691121415726e-02  -2.1115530517444560e-02  -2.8384215019466169e-02  -3.3053770268924830e-02  -3.4702554578839931e-02  0.0000000000000000e+00  -1.5162071873517445e-02  -1.4418792419612678e-02  -5.6148061714090544e-03  6.2820961105670243e-03  1.8313357610692846e-02  2.8622443659302749e-02  3.6133538711945405e-02  4.0354546219084762e-02  4.1224757370956766e-02  3.8980332353992606e-02  3.4041877708759327e-02  2.6928782496705841e-02  1.8204059682366137e-02  8.4480782619554603e-03  -1.7432493848963211e-03  -1.1741740342120950e-02  -2.0858592683384958e-02  -2.8295318476019019e-02  -3.3149465563763296e-02  -3.4757853735120664e-02  0.0000000000000000e+00  -1.1827895868521652e-02  -9.9020263400821425e-03  -1.2906424765451571e-03  9.6934477015846818e-03  2.0544312893483487e-02  2.9705188206080858e-02  3.6278051045139544e-02  3.9846201629493420e-02  4.0349932407072721e-02  3.7984238655816321e-02  3.3111990913207552e-02  2.6195089565611233e-02  1.7746374048687296e-02  8.3025320059500422e-03  -1.5827517191500059e-03  -1.1324852514271138e-02  -2.0271717740550543e-02  -2.7632768622828794e-02  -3.2458904066873955e-02  -3.3985704666763206e-02  0.0000000000000000e+00  -9.0398660350895516e-03  -6.0694599769699773e-03  2.4152163063903020e-03  1.2590241101316046e-02  2.2335953737038838e-02  3.0377943010896729e-02  3.6001607069400698e-02  3.8883586840409046e-02  3.8988506670955804e-02  3.6490477686837032e-02  3.1707143848894982e-02  2.5046125522199668e-02  1.6965582904320934e-02  7.9503506329948667e-03  -1.4945351916863582e-03  -1.0828770066652336e-02  -1.9435409228617525e-02  -2.6543157502737152e-02  -3.1202218775811502e-02  -3.2625660585335919e-02  0.0000000000000000e+00  -6.7825230680750312e-03  -3.0156591384505153e-03  5.3084979129024911e-03  1.4749985999815692e-02  2.3500015732282203e-02  3.0523808017222643e-02  3.5270982713598582e-02  3.7511487589732592e-02  3.7245033727070741e-02  3.4638490836723844e-02  2.9975776807306308e-02  2.3617143304798596e-02  1.5968486524943419e-02  7.4625621316708633e-03  -1.4447632990561342e-03  -1.0257643325059745e-02  -1.8397494206650416e-02  -2.5126848510271728e-02  -2.9528463718071031e-02  -3.0837303050274007e-02  0.0000000000000000e+00  -4.9948064657717416e-03  -7.0614801634131857e-04  7.3635446424252116e-03  1.6103599247627495e-02  2.3955161494291062e-02  3.0076251761756687e-02  3.4052444601481324e-02  3.5735907016409364e-02  3.5161976653520631e-02  3.2496978750075935e-02  2.7999442252985916e-02  2.1989425526633993e-02  1.4825597236874271e-02  6.8917744450406561e-03  -1.4036178102055381e-03  -9.6093967274273780e-03  -1.7189906099992529e-02  -2.3454167204803155e-02  -2.7539891995524982e-02  -2.8728832298658840e-02  0.0000000000000000e+00  -3.6041496503774442e-03  9.4324783874232215e-04  8.6371267684910037e-03  1.6671678561508651e-02  2.3694773056402767e-02  2.9017190104331334e-02  3.2331591596655315e-02  3.3556141354913367e-02  3.2756090593735923e-02  3.0098492599772337e-02  2.5821217493209175e-02  2.0209776671188062e-02  1.3580720840387937e-02  6.2728338368905857e-03  -1.3506425293399107e-03  -8.8834026461683379e-03  -1.5836852238968333e-02  -2.1576012072294645e-02  -2.5308008268407910e-02  -2.6375115936140777e-02  0.0000000000000000e+00  -2.5408486456961672e-03  2.0303907890318667e-03  9.2207688624119620e-03  1.6521407603727136e-02  2.2758831128214873e-02  2.7365831519730231e-02  3.0116690568298042e-02  3.0978569194100494e-02  3.0037922695059623e-02  2.7460167629873529e-02  2.3464145559415485e-02  1.8304399988544599e-02  1.2259378264113635e-02  5.6262568357714057e-03  -1.2748582920536658e-03  -8.0826726317333036e-03  -1.4358795621402434e-02  -1.9530829936739491e-02  -2.2884360334894258e-02  -2.3829543177364545e-02  0.0000000000000000e+00  -1.7429913270693219e-03  2.6506804352702442e-03  9.2156494699630262e-03  1.5740487614034168e-02  2.1213240720842845e-02  2.5166485508505684e-02  2.7435521671045900e-02  2.8021030152424201e-02  2.7021132373292164e-02  2.4595249239199042e-02  2.0942603652982620e-02  1.6288436203827618e-02  1.0875697085811840e-02  4.9624611796028808e-03  -1.1727296825850830e-03  -7.2136428309623182e-03  -1.2774250576283700e-02  -1.7349048092446105e-02  -2.0307586969369532e-02  -2.1131649878450790e-02  0.0000000000000000e+00  -1.1574900338876266e-03  2.8907015210000281e-03  8.7205818611422979e-03  1.4422506253658221e-02  1.9136203253454987e-02  2.2478650921024860e-02  2.4330383758768757e-02  2.4712571008811517e-02  2.3725952462707957e-02  2.1518831624857043e-02  1.8268865065810203e-02  1.4172195749944135e-02  9.4376133673456340e-03  4.2856591012360359e-03  -1.0456304154728526e-03  -6.2850925532871088e-03  -1.1100449727675991e-02  -1.5055796576404837e-02  -1.7607926108362509e-02  -1.8311994544490024e-02  0.0000000000000000e+00  -7.3945842445360510e-04  2.8265988852647708e-03  7.8269472686485573e-03  1.2659334977165284e-02  1.6609962106663233e-02  1.9369912061542979e-02  2.0853309680100282e-02  2.1091407285815569e-02  2.0179676386703344e-02  1.8250224559563068e-02  1.5456552599614483e-02  1.1964971700978141e-02  7.9504960227903664e-03  3.5969318766741810e-03  -8.9757394197545774e-04  -5.3069339431275108e-03  -9.3534730098743107e-03  -1.2672533033958046e-02  -1.4810049453015117e-02  -1.5395238217350038e-02  0.0000000000000000e+00  -4.5099303206642835e-04  2.5246097618948247e-03  6.6172534742196636e-03  1.0537725787977695e-02  1.3716242243557265e-02  1.5911293465381147e-02  1.7062263279206069e-02  1.7202521460208699e-02  1.6415802594164319e-02  1.4813466991455809e-02  1.2522158196458927e-02  9.6771431402987093e-03  6.4194401890359546e-03  2.8963778727963078e-03  -7.3350408957693783e-04  -4.2892215371723207e-03  -7.5482170695508350e-03  -1.0218041748339447e-02  -1.1934841032693128e-02  -1.2402079574710833e-02  0.0000000000000000e+00  -2.5958785188381179e-04  2.0424060782442835e-03  5.1655240423498150e-03  8.1383199592334962e-03  1.0534105186573172e-02  1.2174525530177392e-02  1.3018459078101360e-02  1.3095538718163756e-02  1.2472748111887547e-02  1.1236935868207516e-02  9.4854339763067799e-03  7.3211353275330904e-03  4.8505424623132651e-03  2.1844411672878386e-03  -5.5817129287821256e-04  -3.2414696469925961e-03  -5.6983064814843387e-03  -7.7089769834064658e-03  -9.0004739009840549e-03  -9.3504844353552181e-03  0.0000000000000000e+00  -1.3756016916393463e-04  1.4308657149018410e-03  3.5385552239260523e-03  5.5360118061384090e-03  7.1392574842819127e-03  8.2306249738785340e-03  8.7845938250907304e-03  8.8230226975761251e-03  8.3925016556496215e-03  7.5525148582377489e-03  6.3690994834912648e-03  4.9115864862658678e-03  3.2513801400503167e-03  1.4625179000158329e-03  -3.7559658821923977e-04  -2.1723636537657582e-03  -3.8162261270872980e-03  -5.1605741285519705e-03  -6.0234757625083190e-03  -6.2565810347355727e-03  0.0000000000000000e+00  -6.0239265791961835e-05  7.3550339373571968e-04  1.7978752241417405e-03  2.8008786520208034e-03  3.6045081468129244e-03  4.1495358664805429e-03  4.4240416529141777e-03  4.4394416563080311e-03  4.2196366731121248e-03  3.7948279167112201e-03  3.1983889216278222e-03  2.4652136839271132e-03  1.6311356181564246e-03  7.3323587044096003e-04  -1.8875632916010626e-04  -1.0895267412602942e-03  -1.9132412869097156e-03  -2.5864898585579010e-03  -3.0182598866527696e-03  -3.1343410202967540e-03  0.0000000000000000e+00  0.0000000000000000e+00  0.0000000000000000e+00  0.0000000000000000e+00  0.0000000000000000e+00  0.0000000000000000e+00  0.0000000000000000e+00  0.0000000000000000e+00  0.0000000000000000e+00  0.0000000000000000e+00  0.0000000000000000e+00  0.0000000000000000e+00  0.0000000000000000e+00  0.0000000000000000e+00  0.0000000000000000e+00  0.0000000000000000e+00  0.0000000000000000e+00  0.0000000000000000e+00  0.0000000000000000e+00  0.0000000000000000e+00  0.0000000000000000e+00  </DataArray> 
</PointData> 
</Piece>
</UnstructuredGrid>
</VTKFile>