<?xml version="1.0"?>
<VTKFile type="UnstructuredGrid"  version="0.1"  >
<UnstructuredGrid>
<Piece  NumberOfPoints="21" NumberOfCells="20">
<Points>
<DataArray  type="Float64"  NumberOfComponents="3"  format="ascii">0 0 0  0.05 0 0  0.1 0 0  0.15 0 0  0.2 0 0  0.25 0 0  0.3 0 0  0.35 0 0  0.4 0 0  0.45 0 0  0.5 0 0  0.55 0 0  0.6 0 0  0.65 0 0  0.7 0 0  0.75 0 0  0.8 0 0  0.85 0 0  0.9 0 0  0.95 0 0  1 0 0  </DataArray>
</Points>
<Cells>
<DataArray  type="UInt32"  Name="connectivity"  format="ascii">0 1  1 2  2 3  3 4  4 5  5 6  6 7  7 8  8 9  9 10  10 11  11 12  12 13  13 14  14 15  15 16  16 17  17 18  18 19  19 20  </DataArray>
<DataArray  type="UInt32"  Name="offsets"  format="ascii">2 4 6 8 10 12 14 16 18 20 22 24 26 28 30 32 34 36 38 40 </DataArray>
<DataArray  type="UInt8"  Name="types"  format="ascii">3 3 3 3 3 3 3 3 3 3 3 3 3 3 3 3 3 3 3 3 </DataArray>
</Cells>
<PointData  Scalars="u"> 
<DataArray  type="Float64"  Name="u"  format="ascii">0.0000000000000000e+00  -6.2350777084025318e-02  -8.4236132829018609e-02  -8.3190341243181976e-02  -7.1600175047995623e-02  -5.5345450690059930e-02  -3.7671384757973006e-02  -2.0341774068624939e-02  -4.3289862712557374e-03  9.8296218927954870e-03  2.1855094005013086e-02  3.1622801732215995e-02  3.9094241884684418e-02  4.4264762734226491e-02  4.7113552419524037e-02  4.7545307482284561e-02  4.5310484922819673e-02  3.9925075205097124e-02  3.0587787871166935e-02  1.6673879445299043e-02  0.0000000000000000e+00  </DataArray> 
</PointData> 
</Piece>
</UnstructuredGrid>
</VTKFile>