<?xml version="1.0"?>
<VTKFile type="UnstructuredGrid"  version="0.1"  >
<UnstructuredGrid>
<Piece  NumberOfPoints="36" NumberOfCells="50">
<Points>
<DataArray  type="Float32"  NumberOfComponents="3"  format="ascii">0 0 0  0.2 0 0  0.4 0 0  0.6 0 0  0.8 0 0  1 0 0  0 0.2 0  0.2 0.2 0  0.4 0.2 0  0.6 0.2 0  0.8 0.2 0  1 0.2 0  0 0.4 0  0.2 0.4 0  0.4 0.4 0  0.6 0.4 0  0.8 0.4 0  1 0.4 0  0 0.6 0  0.2 0.6 0  0.4 0.6 0  0.6 0.6 0  0.8 0.6 0  1 0.6 0  0 0.8 0  0.2 0.8 0  0.4 0.8 0  0.6 0.8 0  0.8 0.8 0  1 0.8 0  0 1 0  0.2 1 0  0.4 1 0  0.6 1 0  0.8 1 0  1 1 0  </DataArray>
</Points>
<Cells>
<DataArray  type="UInt32"  Name="connectivity"  format="ascii">0 1 7  0 6 7  1 2 8  1 7 8  2 3 9  2 8 9  3 4 10  3 9 10  4 5 11  4 10 11  6 7 13  6 12 13  7 8 14  7 13 14  8 9 15  8 14 15  9 10 16  9 15 16  10 11 17  10 16 17  12 13 19  12 18 19  13 14 20  13 19 20  14 15 21  14 20 21  15 16 22  15 21 22  16 17 23  16 22 23  18 19 25  18 24 25  19 20 26  19 25 26  20 21 27  20 26 27  21 22 28  21 27 28  22 23 29  22 28 29  24 25 31  24 30 31  25 26 32  25 31 32  26 27 33  26 32 33  27 28 34  27 33 34  28 29 35  28 34 35  </DataArray>
<DataArray  type="UInt32"  Name="offsets"  format="ascii">3 6 9 12 15 18 21 24 27 30 33 36 39 42 45 48 51 54 57 60 63 66 69 72 75 78 81 84 87 90 93 96 99 102 105 108 111 114 117 120 123 126 129 132 135 138 141 144 147 150 </DataArray>
<DataArray  type="UInt8"  Name="types"  format="ascii">5 5 5 5 5 5 5 5 5 5 5 5 5 5 5 5 5 5 5 5 5 5 5 5 5 5 5 5 5 5 5 5 5 5 5 5 5 5 5 5 5 5 5 5 5 5 5 5 5 5 </DataArray>
</Cells>
<PointData  Scalars="u"> 
<DataArray  type="Float32"  Name="u"  format="ascii">1.000000e+000  1.040000e+000  1.160000e+000  1.360000e+000  1.640000e+000  2.000000e+000  1.080000e+000  1.120000e+000  1.239999e+000  1.439999e+000  1.720002e+000  2.080000e+000  1.320000e+000  1.359999e+000  1.480000e+000  1.679999e+000  1.959999e+000  2.320000e+000  1.720000e+000  1.760000e+000  1.880002e+000  2.080001e+000  2.360001e+000  2.720000e+000  2.280000e+000  2.320001e+000  2.439999e+000  2.639998e+000  2.920001e+000  3.280000e+000  3.000000e+000  3.040000e+000  3.160000e+000  3.360000e+000  3.640000e+000  4.000000e+000  </DataArray> 
</PointData> 
</Piece>
</UnstructuredGrid>
</VTKFile>