<?xml version="1.0"?>
<VTKFile type="UnstructuredGrid"  version="0.1"  >
<UnstructuredGrid>
<Piece  NumberOfPoints="441" NumberOfCells="800">
<Points>
<DataArray  type="Float64"  NumberOfComponents="3"  format="ascii">0 0 0  0.05 0 0  0.1 0 0  0.15 0 0  0.2 0 0  0.25 0 0  0.3 0 0  0.35 0 0  0.4 0 0  0.45 0 0  0.5 0 0  0.55 0 0  0.6 0 0  0.65 0 0  0.7 0 0  0.75 0 0  0.8 0 0  0.85 0 0  0.9 0 0  0.95 0 0  1 0 0  0 0.05 0  0.05 0.05 0  0.1 0.05 0  0.15 0.05 0  0.2 0.05 0  0.25 0.05 0  0.3 0.05 0  0.35 0.05 0  0.4 0.05 0  0.45 0.05 0  0.5 0.05 0  0.55 0.05 0  0.6 0.05 0  0.65 0.05 0  0.7 0.05 0  0.75 0.05 0  0.8 0.05 0  0.85 0.05 0  0.9 0.05 0  0.95 0.05 0  1 0.05 0  0 0.1 0  0.05 0.1 0  0.1 0.1 0  0.15 0.1 0  0.2 0.1 0  0.25 0.1 0  0.3 0.1 0  0.35 0.1 0  0.4 0.1 0  0.45 0.1 0  0.5 0.1 0  0.55 0.1 0  0.6 0.1 0  0.65 0.1 0  0.7 0.1 0  0.75 0.1 0  0.8 0.1 0  0.85 0.1 0  0.9 0.1 0  0.95 0.1 0  1 0.1 0  0 0.15 0  0.05 0.15 0  0.1 0.15 0  0.15 0.15 0  0.2 0.15 0  0.25 0.15 0  0.3 0.15 0  0.35 0.15 0  0.4 0.15 0  0.45 0.15 0  0.5 0.15 0  0.55 0.15 0  0.6 0.15 0  0.65 0.15 0  0.7 0.15 0  0.75 0.15 0  0.8 0.15 0  0.85 0.15 0  0.9 0.15 0  0.95 0.15 0  1 0.15 0  0 0.2 0  0.05 0.2 0  0.1 0.2 0  0.15 0.2 0  0.2 0.2 0  0.25 0.2 0  0.3 0.2 0  0.35 0.2 0  0.4 0.2 0  0.45 0.2 0  0.5 0.2 0  0.55 0.2 0  0.6 0.2 0  0.65 0.2 0  0.7 0.2 0  0.75 0.2 0  0.8 0.2 0  0.85 0.2 0  0.9 0.2 0  0.95 0.2 0  1 0.2 0  0 0.25 0  0.05 0.25 0  0.1 0.25 0  0.15 0.25 0  0.2 0.25 0  0.25 0.25 0  0.3 0.25 0  0.35 0.25 0  0.4 0.25 0  0.45 0.25 0  0.5 0.25 0  0.55 0.25 0  0.6 0.25 0  0.65 0.25 0  0.7 0.25 0  0.75 0.25 0  0.8 0.25 0  0.85 0.25 0  0.9 0.25 0  0.95 0.25 0  1 0.25 0  0 0.3 0  0.05 0.3 0  0.1 0.3 0  0.15 0.3 0  0.2 0.3 0  0.25 0.3 0  0.3 0.3 0  0.35 0.3 0  0.4 0.3 0  0.45 0.3 0  0.5 0.3 0  0.55 0.3 0  0.6 0.3 0  0.65 0.3 0  0.7 0.3 0  0.75 0.3 0  0.8 0.3 0  0.85 0.3 0  0.9 0.3 0  0.95 0.3 0  1 0.3 0  0 0.35 0  0.05 0.35 0  0.1 0.35 0  0.15 0.35 0  0.2 0.35 0  0.25 0.35 0  0.3 0.35 0  0.35 0.35 0  0.4 0.35 0  0.45 0.35 0  0.5 0.35 0  0.55 0.35 0  0.6 0.35 0  0.65 0.35 0  0.7 0.35 0  0.75 0.35 0  0.8 0.35 0  0.85 0.35 0  0.9 0.35 0  0.95 0.35 0  1 0.35 0  0 0.4 0  0.05 0.4 0  0.1 0.4 0  0.15 0.4 0  0.2 0.4 0  0.25 0.4 0  0.3 0.4 0  0.35 0.4 0  0.4 0.4 0  0.45 0.4 0  0.5 0.4 0  0.55 0.4 0  0.6 0.4 0  0.65 0.4 0  0.7 0.4 0  0.75 0.4 0  0.8 0.4 0  0.85 0.4 0  0.9 0.4 0  0.95 0.4 0  1 0.4 0  0 0.45 0  0.05 0.45 0  0.1 0.45 0  0.15 0.45 0  0.2 0.45 0  0.25 0.45 0  0.3 0.45 0  0.35 0.45 0  0.4 0.45 0  0.45 0.45 0  0.5 0.45 0  0.55 0.45 0  0.6 0.45 0  0.65 0.45 0  0.7 0.45 0  0.75 0.45 0  0.8 0.45 0  0.85 0.45 0  0.9 0.45 0  0.95 0.45 0  1 0.45 0  0 0.5 0  0.05 0.5 0  0.1 0.5 0  0.15 0.5 0  0.2 0.5 0  0.25 0.5 0  0.3 0.5 0  0.35 0.5 0  0.4 0.5 0  0.45 0.5 0  0.5 0.5 0  0.55 0.5 0  0.6 0.5 0  0.65 0.5 0  0.7 0.5 0  0.75 0.5 0  0.8 0.5 0  0.85 0.5 0  0.9 0.5 0  0.95 0.5 0  1 0.5 0  0 0.55 0  0.05 0.55 0  0.1 0.55 0  0.15 0.55 0  0.2 0.55 0  0.25 0.55 0  0.3 0.55 0  0.35 0.55 0  0.4 0.55 0  0.45 0.55 0  0.5 0.55 0  0.55 0.55 0  0.6 0.55 0  0.65 0.55 0  0.7 0.55 0  0.75 0.55 0  0.8 0.55 0  0.85 0.55 0  0.9 0.55 0  0.95 0.55 0  1 0.55 0  0 0.6 0  0.05 0.6 0  0.1 0.6 0  0.15 0.6 0  0.2 0.6 0  0.25 0.6 0  0.3 0.6 0  0.35 0.6 0  0.4 0.6 0  0.45 0.6 0  0.5 0.6 0  0.55 0.6 0  0.6 0.6 0  0.65 0.6 0  0.7 0.6 0  0.75 0.6 0  0.8 0.6 0  0.85 0.6 0  0.9 0.6 0  0.95 0.6 0  1 0.6 0  0 0.65 0  0.05 0.65 0  0.1 0.65 0  0.15 0.65 0  0.2 0.65 0  0.25 0.65 0  0.3 0.65 0  0.35 0.65 0  0.4 0.65 0  0.45 0.65 0  0.5 0.65 0  0.55 0.65 0  0.6 0.65 0  0.65 0.65 0  0.7 0.65 0  0.75 0.65 0  0.8 0.65 0  0.85 0.65 0  0.9 0.65 0  0.95 0.65 0  1 0.65 0  0 0.7 0  0.05 0.7 0  0.1 0.7 0  0.15 0.7 0  0.2 0.7 0  0.25 0.7 0  0.3 0.7 0  0.35 0.7 0  0.4 0.7 0  0.45 0.7 0  0.5 0.7 0  0.55 0.7 0  0.6 0.7 0  0.65 0.7 0  0.7 0.7 0  0.75 0.7 0  0.8 0.7 0  0.85 0.7 0  0.9 0.7 0  0.95 0.7 0  1 0.7 0  0 0.75 0  0.05 0.75 0  0.1 0.75 0  0.15 0.75 0  0.2 0.75 0  0.25 0.75 0  0.3 0.75 0  0.35 0.75 0  0.4 0.75 0  0.45 0.75 0  0.5 0.75 0  0.55 0.75 0  0.6 0.75 0  0.65 0.75 0  0.7 0.75 0  0.75 0.75 0  0.8 0.75 0  0.85 0.75 0  0.9 0.75 0  0.95 0.75 0  1 0.75 0  0 0.8 0  0.05 0.8 0  0.1 0.8 0  0.15 0.8 0  0.2 0.8 0  0.25 0.8 0  0.3 0.8 0  0.35 0.8 0  0.4 0.8 0  0.45 0.8 0  0.5 0.8 0  0.55 0.8 0  0.6 0.8 0  0.65 0.8 0  0.7 0.8 0  0.75 0.8 0  0.8 0.8 0  0.85 0.8 0  0.9 0.8 0  0.95 0.8 0  1 0.8 0  0 0.85 0  0.05 0.85 0  0.1 0.85 0  0.15 0.85 0  0.2 0.85 0  0.25 0.85 0  0.3 0.85 0  0.35 0.85 0  0.4 0.85 0  0.45 0.85 0  0.5 0.85 0  0.55 0.85 0  0.6 0.85 0  0.65 0.85 0  0.7 0.85 0  0.75 0.85 0  0.8 0.85 0  0.85 0.85 0  0.9 0.85 0  0.95 0.85 0  1 0.85 0  0 0.9 0  0.05 0.9 0  0.1 0.9 0  0.15 0.9 0  0.2 0.9 0  0.25 0.9 0  0.3 0.9 0  0.35 0.9 0  0.4 0.9 0  0.45 0.9 0  0.5 0.9 0  0.55 0.9 0  0.6 0.9 0  0.65 0.9 0  0.7 0.9 0  0.75 0.9 0  0.8 0.9 0  0.85 0.9 0  0.9 0.9 0  0.95 0.9 0  1 0.9 0  0 0.95 0  0.05 0.95 0  0.1 0.95 0  0.15 0.95 0  0.2 0.95 0  0.25 0.95 0  0.3 0.95 0  0.35 0.95 0  0.4 0.95 0  0.45 0.95 0  0.5 0.95 0  0.55 0.95 0  0.6 0.95 0  0.65 0.95 0  0.7 0.95 0  0.75 0.95 0  0.8 0.95 0  0.85 0.95 0  0.9 0.95 0  0.95 0.95 0  1 0.95 0  0 1 0  0.05 1 0  0.1 1 0  0.15 1 0  0.2 1 0  0.25 1 0  0.3 1 0  0.35 1 0  0.4 1 0  0.45 1 0  0.5 1 0  0.55 1 0  0.6 1 0  0.65 1 0  0.7 1 0  0.75 1 0  0.8 1 0  0.85 1 0  0.9 1 0  0.95 1 0  1 1 0  </DataArray>
</Points>
<Cells>
[...]
<PointData  Scalars="u"> 
<DataArray  type="Float64"  Name="u"  format="ascii">0.0000000000000000e+00  0.0000000000000000e+00  0.0000000000000000e+00  0.0000000000000000e+00  0.0000000000000000e+00  0.0000000000000000e+00  0.0000000000000000e+00  0.0000000000000000e+00  0.0000000000000000e+00  0.0000000000000000e+00  0.0000000000000000e+00  0.0000000000000000e+00  0.0000000000000000e+00  0.0000000000000000e+00  0.0000000000000000e+00  0.0000000000000000e+00  0.0000000000000000e+00  0.0000000000000000e+00  0.0000000000000000e+00  0.0000000000000000e+00  0.0000000000000000e+00  0.0000000000000000e+00  0.0000000000000000e+00  0.0000000000000000e+00  0.0000000000000000e+00  0.0000000000000000e+00  0.0000000000000000e+00  0.0000000000000000e+00  0.0000000000000000e+00  0.0000000000000000e+00  0.0000000000000000e+00  0.0000000000000000e+00  0.0000000000000000e+00  0.0000000000000000e+00  0.0000000000000000e+00  0.0000000000000000e+00  3.8399693056644575e-16  4.7861208721846394e-16  6.0254384118881568e-16  7.0525319651548955e-16  8.7986621191704612e-16  1.1981039363805233e-15  0.0000000000000000e+00  0.0000000000000000e+00  0.0000000000000000e+00  0.0000000000000000e+00  0.0000000000000000e+00  0.0000000000000000e+00  0.0000000000000000e+00  0.0000000000000000e+00  0.0000000000000000e+00  0.0000000000000000e+00  0.0000000000000000e+00  0.0000000000000000e+00  3.3441617580453648e-16  4.7385199716409655e-16  5.7537260342201801e-16  6.9093581662562747e-16  8.2927084875227587e-16  1.0370461023470050e-15  1.1805081782678205e-15  1.4419246245604334e-15  1.7967871314105861e-15  0.0000000000000000e+00  0.0000000000000000e+00  0.0000000000000000e+00  0.0000000000000000e+00  0.0000000000000000e+00  0.0000000000000000e+00  0.0000000000000000e+00  0.0000000000000000e+00  0.0000000000000000e+00  0.0000000000000000e+00  3.0587686879920246e-16  3.9184015114427252e-16  5.9764138483512347e-16  7.2090390301017905e-16  8.6942778209784356e-16  9.5746041984223128e-16  1.2166715008479151e-15  1.4698147372098420e-15  1.6499289471544876e-15  1.9727999210889985e-15  2.2519690935264819e-15  0.0000000000000000e+00  0.0000000000000000e+00  0.0000000000000000e+00  0.0000000000000000e+00  0.0000000000000000e+00  0.0000000000000000e+00  0.0000000000000000e+00  0.0000000000000000e+00  0.0000000000000000e+00  3.3289345301861367e-16  5.3979828256422129e-16  7.0282574316997188e-16  8.3495339035222045e-16  9.2094337322130277e-16  1.0914715347763649e-15  1.3264347091931677e-15  1.5686631065715740e-15  1.8600153458912971e-15  2.0906960069759914e-15  2.4111851336321402e-15  2.5727409364630269e-15  0.0000000000000000e+00  0.0000000000000000e+00  0.0000000000000000e+00  0.0000000000000000e+00  0.0000000000000000e+00  0.0000000000000000e+00  0.0000000000000000e+00  3.2336970186759587e-16  5.0152761396780117e-16  6.5826125941000791e-16  7.7407250835520797e-16  1.0358088930874030e-15  1.0926038286790064e-15  1.1776897582819087e-15  1.4277247236693522e-15  1.8002668527521126e-15  1.9792747242813054e-15  2.2328251314552402e-15  2.4064188103870739e-15  2.6518639262173289e-15  2.8566311640745674e-15  0.0000000000000000e+00  0.0000000000000000e+00  0.0000000000000000e+00  0.0000000000000000e+00  0.0000000000000000e+00  0.0000000000000000e+00  0.0000000000000000e+00  5.7603637847689867e-16  8.0597404877465991e-16  9.5403013807295147e-16  1.0182165927433697e-15  1.2680042510838171e-15  1.4262058526012749e-15  1.5496639704324341e-15  1.7455651187351863e-15  1.9832587991839392e-15  2.2387279696579980e-15  2.4017574837467196e-15  2.5821123709257106e-15  2.9178855397228209e-15  3.1429260851183610e-15  0.0000000000000000e+00  0.0000000000000000e+00  0.0000000000000000e+00  3.0865778280859191e-16  0.0000000000000000e+00  0.0000000000000000e+00  0.0000000000000000e+00  7.0967526973914154e-16  9.1947205827385101e-16  1.0801343889068548e-15  1.2900614187255617e-15  1.4150869087654067e-15  1.7138554045632155e-15  1.9044554470103543e-15  1.9292037482959776e-15  2.0698394373618947e-15  2.3663228059417694e-15  2.6729158850823449e-15  3.0319112116840320e-15  3.1862385275619668e-15  3.1880039678179143e-15  0.0000000000000000e+00  0.0000000000000000e+00  0.0000000000000000e+00  3.4423938064133461e-16  0.0000000000000000e+00  0.0000000000000000e+00  4.0763552211582496e-16  6.4006783643539085e-16  9.6862365467303479e-16  1.1468518878486374e-15  1.4483290354115055e-15  1.5549929302958074e-15  1.9115459337818962e-15  2.1778561521457002e-15  2.1483017404542824e-15  2.2003085556655701e-15  2.5426917660432484e-15  2.9984935534567850e-15  3.1570330696515481e-15  2.9724818656767719e-15  2.8441547077744335e-15  0.0000000000000000e+00  0.0000000000000000e+00  3.8667864342494242e-16  5.3004599086165989e-16  6.2747567567265408e-16  6.9552494460085966e-16  5.4336292691098663e-16  5.9787167211283396e-16  7.3647266780580787e-16  1.2099509464111007e-15  1.6185588168305535e-15  1.8178570129704392e-15  2.1173823600168789e-15  2.4773116424887533e-15  2.5747913859803260e-15  2.6060479338022932e-15  2.6452400324772066e-15  2.9642744303964696e-15  3.0302769226159588e-15  2.8069571304599914e-15  2.6749471742324359e-15  0.0000000000000000e+00  0.0000000000000000e+00  3.7846404162503370e-16  6.9548958522405875e-16  1.1613886972197126e-15  1.2616157995192973e-15  1.0582271648612626e-15  7.8640961319149690e-16  8.8629790611620644e-16  1.3117637292282966e-15  1.8189026706471018e-15  2.1599986334934321e-15  2.3466198564539254e-15  2.7258843097602542e-15  2.8483957108401943e-15  2.8126607397040479e-15  2.6566025974903867e-15  2.6248962354867658e-15  2.6827357703895224e-15  2.5174540864657134e-15  2.2413525636025727e-15  0.0000000000000000e+00  0.0000000000000000e+00  0.0000000000000000e+00  5.5242989461085344e-16  1.3295625674554169e-15  1.4760399351837983e-15  1.4703895849144039e-15  1.1063738591225630e-15  1.2423841907469723e-15  1.6263790579277882e-15  2.0239434566783403e-15  2.5267046363957677e-15  2.5486086504915744e-15  2.6319813787294326e-15  2.8921785496707463e-15  2.7462800208918468e-15  2.4139418948382374e-15  2.1522573472970068e-15  2.1945501638712861e-15  1.9898160464431374e-15  1.7313131822320909e-15  0.0000000000000000e+00  0.0000000000000000e+00  0.0000000000000000e+00  0.0000000000000000e+00  8.9886022296299423e-16  1.3944784227810858e-15  1.6132605808430947e-15  1.7784844786015836e-15  1.9116732319890189e-15  2.0589425897150913e-15  2.1902822502817710e-15  2.4992572718789440e-15  2.5498261766875077e-15  2.4315071325593409e-15  2.4126855705343323e-15  2.3555664799256885e-15  2.1198007142998474e-15  1.7866051527908094e-15  1.4615581774477527e-15  1.2749513784469639e-15  1.1939213631826217e-15  0.0000000000000000e+00  0.0000000000000000e+00  0.0000000000000000e+00  0.0000000000000000e+00  5.9014033041481837e-16  1.1793735240111475e-15  1.6442776064251017e-15  2.2091898180759520e-15  2.4971950824935204e-15  2.4982915537943104e-15  2.3095425662805397e-15  2.2469243720089304e-15  2.1967287184163755e-15  2.0206473546255600e-15  1.7654912861083277e-15  1.6331396136641844e-15  1.7467313381907158e-15  1.3529311636160296e-15  8.1422939777326845e-16  7.0927878894580236e-16  6.3352911669840513e-16  0.0000000000000000e+00  0.0000000000000000e+00  0.0000000000000000e+00  4.2872251482661807e-16  5.3438282374195402e-16  9.1649052246742629e-16  1.6110619963967775e-15  2.3270100916557641e-15  2.5356509086669556e-15  2.5407995111270407e-15  2.2523467141472191e-15  2.0123727007659093e-15  1.9490741359340448e-15  1.6470855807337431e-15  1.3384582708600193e-15  1.1611120446535730e-15  1.1515501288729114e-15  8.4204900002184102e-16  4.3442217862276119e-16  0.0000000000000000e+00  0.0000000000000000e+00  0.0000000000000000e+00  3.1094765971392510e-16  4.8382664881714461e-16  5.7784132394777482e-16  6.4360066888842381e-16  9.1287496372659753e-16  1.5910247649244243e-15  2.1733219402746573e-15  2.2988559912248099e-15  2.2884996444505805e-15  2.0708005608553113e-15  1.8375466628726850e-15  1.6801257975795378e-15  1.4543107632674915e-15  1.1522247938540531e-15  8.7574113233312348e-16  5.0001146866698841e-16  0.0000000000000000e+00  0.0000000000000000e+00  0.0000000000000000e+00  0.0000000000000000e+00  0.0000000000000000e+00  3.2762670916348219e-16  0.0000000000000000e+00  4.4493573685157257e-16  5.3473292843506462e-16  1.0772844560674324e-15  1.5631790669496587e-15  1.8616704786916652e-15  1.9362634076132858e-15  1.9276201537981936e-15  1.8234731707253018e-15  1.4313488561727671e-15  1.2845274579534988e-15  1.3560440922813880e-15  1.2128103738136883e-15  7.0858687642854803e-16  0.0000000000000000e+00  0.0000000000000000e+00  0.0000000000000000e+00  0.0000000000000000e+00  0.0000000000000000e+00  0.0000000000000000e+00  3.5052639056172202e-16  0.0000000000000000e+00  0.0000000000000000e+00  3.7532388296582980e-16  1.0757324954347036e-15  1.5383227124600628e-15  1.5079582298119871e-15  1.5185890460440024e-15  1.3250128881904238e-15  1.4245875401640653e-15  1.3068821521323019e-15  9.5391408415169567e-16  1.0102100788282046e-15  1.0412433695298980e-15  6.1194690494207530e-16  0.0000000000000000e+00  0.0000000000000000e+00  0.0000000000000000e+00  -3.1178902005963780e-16  0.0000000000000000e+00  0.0000000000000000e+00  0.0000000000000000e+00  0.0000000000000000e+00  0.0000000000000000e+00  3.1048723817988100e-16  8.3252556253454703e-16  1.2735718693867460e-15  1.2067950548431724e-15  1.0098464407404466e-15  8.3975115904431432e-16  8.4650646199356665e-16  1.0900898797190803e-15  8.5939812014938517e-16  3.7262363648055231e-16  3.7246031300530977e-16  4.7732109050189671e-16  0.0000000000000000e+00  0.0000000000000000e+00  0.0000000000000000e+00  0.0000000000000000e+00  0.0000000000000000e+00  0.0000000000000000e+00  0.0000000000000000e+00  0.0000000000000000e+00  0.0000000000000000e+00  0.0000000000000000e+00  5.0871118426439442e-16  7.0508012506505340e-16  7.1464990219305087e-16  4.7482001205052618e-16  3.7721236153979356e-16  4.9776915288139212e-16  5.3867230093621846e-16  4.3922196901050342e-16  0.0000000000000000e+00  0.0000000000000000e+00  3.0578092625974223e-16  0.0000000000000000e+00  0.0000000000000000e+00  0.0000000000000000e+00  0.0000000000000000e+00  0.0000000000000000e+00  0.0000000000000000e+00  0.0000000000000000e+00  0.0000000000000000e+00  0.0000000000000000e+00  0.0000000000000000e+00  0.0000000000000000e+00  0.0000000000000000e+00  0.0000000000000000e+00  0.0000000000000000e+00  0.0000000000000000e+00  0.0000000000000000e+00  0.0000000000000000e+00  0.0000000000000000e+00  0.0000000000000000e+00  0.0000000000000000e+00  0.0000000000000000e+00  0.0000000000000000e+00  0.0000000000000000e+00  0.0000000000000000e+00  0.0000000000000000e+00  0.0000000000000000e+00  </DataArray> 
</PointData> 
</Piece>
</UnstructuredGrid>
</VTKFile>