<?xml version="1.0"?>
<VTKFile type="UnstructuredGrid"  version="0.1"  >
<UnstructuredGrid>
<Piece  NumberOfPoints="441" NumberOfCells="800">
<Points>
<DataArray  type="Float64"  NumberOfComponents="3"  format="ascii">0 0 0  0.05 0 0  0.1 0 0  0.15 0 0  0.2 0 0  0.25 0 0  0.3 0 0  0.35 0 0  0.4 0 0  0.45 0 0  0.5 0 0  0.55 0 0  0.6 0 0  0.65 0 0  0.7 0 0  0.75 0 0  0.8 0 0  0.85 0 0  0.9 0 0  0.95 0 0  1 0 0  0 0.05 0  0.05 0.05 0  0.1 0.05 0  0.15 0.05 0  0.2 0.05 0  0.25 0.05 0  0.3 0.05 0  0.35 0.05 0  0.4 0.05 0  0.45 0.05 0  0.5 0.05 0  0.55 0.05 0  0.6 0.05 0  0.65 0.05 0  0.7 0.05 0  0.75 0.05 0  0.8 0.05 0  0.85 0.05 0  0.9 0.05 0  0.95 0.05 0  1 0.05 0  0 0.1 0  0.05 0.1 0  0.1 0.1 0  0.15 0.1 0  0.2 0.1 0  0.25 0.1 0  0.3 0.1 0  0.35 0.1 0  0.4 0.1 0  0.45 0.1 0  0.5 0.1 0  0.55 0.1 0  0.6 0.1 0  0.65 0.1 0  0.7 0.1 0  0.75 0.1 0  0.8 0.1 0  0.85 0.1 0  0.9 0.1 0  0.95 0.1 0  1 0.1 0  0 0.15 0  0.05 0.15 0  0.1 0.15 0  0.15 0.15 0  0.2 0.15 0  0.25 0.15 0  0.3 0.15 0  0.35 0.15 0  0.4 0.15 0  0.45 0.15 0  0.5 0.15 0  0.55 0.15 0  0.6 0.15 0  0.65 0.15 0  0.7 0.15 0  0.75 0.15 0  0.8 0.15 0  0.85 0.15 0  0.9 0.15 0  0.95 0.15 0  1 0.15 0  0 0.2 0  0.05 0.2 0  0.1 0.2 0  0.15 0.2 0  0.2 0.2 0  0.25 0.2 0  0.3 0.2 0  0.35 0.2 0  0.4 0.2 0  0.45 0.2 0  0.5 0.2 0  0.55 0.2 0  0.6 0.2 0  0.65 0.2 0  0.7 0.2 0  0.75 0.2 0  0.8 0.2 0  0.85 0.2 0  0.9 0.2 0  0.95 0.2 0  1 0.2 0  0 0.25 0  0.05 0.25 0  0.1 0.25 0  0.15 0.25 0  0.2 0.25 0  0.25 0.25 0  0.3 0.25 0  0.35 0.25 0  0.4 0.25 0  0.45 0.25 0  0.5 0.25 0  0.55 0.25 0  0.6 0.25 0  0.65 0.25 0  0.7 0.25 0  0.75 0.25 0  0.8 0.25 0  0.85 0.25 0  0.9 0.25 0  0.95 0.25 0  1 0.25 0  0 0.3 0  0.05 0.3 0  0.1 0.3 0  0.15 0.3 0  0.2 0.3 0  0.25 0.3 0  0.3 0.3 0  0.35 0.3 0  0.4 0.3 0  0.45 0.3 0  0.5 0.3 0  0.55 0.3 0  0.6 0.3 0  0.65 0.3 0  0.7 0.3 0  0.75 0.3 0  0.8 0.3 0  0.85 0.3 0  0.9 0.3 0  0.95 0.3 0  1 0.3 0  0 0.35 0  0.05 0.35 0  0.1 0.35 0  0.15 0.35 0  0.2 0.35 0  0.25 0.35 0  0.3 0.35 0  0.35 0.35 0  0.4 0.35 0  0.45 0.35 0  0.5 0.35 0  0.55 0.35 0  0.6 0.35 0  0.65 0.35 0  0.7 0.35 0  0.75 0.35 0  0.8 0.35 0  0.85 0.35 0  0.9 0.35 0  0.95 0.35 0  1 0.35 0  0 0.4 0  0.05 0.4 0  0.1 0.4 0  0.15 0.4 0  0.2 0.4 0  0.25 0.4 0  0.3 0.4 0  0.35 0.4 0  0.4 0.4 0  0.45 0.4 0  0.5 0.4 0  0.55 0.4 0  0.6 0.4 0  0.65 0.4 0  0.7 0.4 0  0.75 0.4 0  0.8 0.4 0  0.85 0.4 0  0.9 0.4 0  0.95 0.4 0  1 0.4 0  0 0.45 0  0.05 0.45 0  0.1 0.45 0  0.15 0.45 0  0.2 0.45 0  0.25 0.45 0  0.3 0.45 0  0.35 0.45 0  0.4 0.45 0  0.45 0.45 0  0.5 0.45 0  0.55 0.45 0  0.6 0.45 0  0.65 0.45 0  0.7 0.45 0  0.75 0.45 0  0.8 0.45 0  0.85 0.45 0  0.9 0.45 0  0.95 0.45 0  1 0.45 0  0 0.5 0  0.05 0.5 0  0.1 0.5 0  0.15 0.5 0  0.2 0.5 0  0.25 0.5 0  0.3 0.5 0  0.35 0.5 0  0.4 0.5 0  0.45 0.5 0  0.5 0.5 0  0.55 0.5 0  0.6 0.5 0  0.65 0.5 0  0.7 0.5 0  0.75 0.5 0  0.8 0.5 0  0.85 0.5 0  0.9 0.5 0  0.95 0.5 0  1 0.5 0  0 0.55 0  0.05 0.55 0  0.1 0.55 0  0.15 0.55 0  0.2 0.55 0  0.25 0.55 0  0.3 0.55 0  0.35 0.55 0  0.4 0.55 0  0.45 0.55 0  0.5 0.55 0  0.55 0.55 0  0.6 0.55 0  0.65 0.55 0  0.7 0.55 0  0.75 0.55 0  0.8 0.55 0  0.85 0.55 0  0.9 0.55 0  0.95 0.55 0  1 0.55 0  0 0.6 0  0.05 0.6 0  0.1 0.6 0  0.15 0.6 0  0.2 0.6 0  0.25 0.6 0  0.3 0.6 0  0.35 0.6 0  0.4 0.6 0  0.45 0.6 0  0.5 0.6 0  0.55 0.6 0  0.6 0.6 0  0.65 0.6 0  0.7 0.6 0  0.75 0.6 0  0.8 0.6 0  0.85 0.6 0  0.9 0.6 0  0.95 0.6 0  1 0.6 0  0 0.65 0  0.05 0.65 0  0.1 0.65 0  0.15 0.65 0  0.2 0.65 0  0.25 0.65 0  0.3 0.65 0  0.35 0.65 0  0.4 0.65 0  0.45 0.65 0  0.5 0.65 0  0.55 0.65 0  0.6 0.65 0  0.65 0.65 0  0.7 0.65 0  0.75 0.65 0  0.8 0.65 0  0.85 0.65 0  0.9 0.65 0  0.95 0.65 0  1 0.65 0  0 0.7 0  0.05 0.7 0  0.1 0.7 0  0.15 0.7 0  0.2 0.7 0  0.25 0.7 0  0.3 0.7 0  0.35 0.7 0  0.4 0.7 0  0.45 0.7 0  0.5 0.7 0  0.55 0.7 0  0.6 0.7 0  0.65 0.7 0  0.7 0.7 0  0.75 0.7 0  0.8 0.7 0  0.85 0.7 0  0.9 0.7 0  0.95 0.7 0  1 0.7 0  0 0.75 0  0.05 0.75 0  0.1 0.75 0  0.15 0.75 0  0.2 0.75 0  0.25 0.75 0  0.3 0.75 0  0.35 0.75 0  0.4 0.75 0  0.45 0.75 0  0.5 0.75 0  0.55 0.75 0  0.6 0.75 0  0.65 0.75 0  0.7 0.75 0  0.75 0.75 0  0.8 0.75 0  0.85 0.75 0  0.9 0.75 0  0.95 0.75 0  1 0.75 0  0 0.8 0  0.05 0.8 0  0.1 0.8 0  0.15 0.8 0  0.2 0.8 0  0.25 0.8 0  0.3 0.8 0  0.35 0.8 0  0.4 0.8 0  0.45 0.8 0  0.5 0.8 0  0.55 0.8 0  0.6 0.8 0  0.65 0.8 0  0.7 0.8 0  0.75 0.8 0  0.8 0.8 0  0.85 0.8 0  0.9 0.8 0  0.95 0.8 0  1 0.8 0  0 0.85 0  0.05 0.85 0  0.1 0.85 0  0.15 0.85 0  0.2 0.85 0  0.25 0.85 0  0.3 0.85 0  0.35 0.85 0  0.4 0.85 0  0.45 0.85 0  0.5 0.85 0  0.55 0.85 0  0.6 0.85 0  0.65 0.85 0  0.7 0.85 0  0.75 0.85 0  0.8 0.85 0  0.85 0.85 0  0.9 0.85 0  0.95 0.85 0  1 0.85 0  0 0.9 0  0.05 0.9 0  0.1 0.9 0  0.15 0.9 0  0.2 0.9 0  0.25 0.9 0  0.3 0.9 0  0.35 0.9 0  0.4 0.9 0  0.45 0.9 0  0.5 0.9 0  0.55 0.9 0  0.6 0.9 0  0.65 0.9 0  0.7 0.9 0  0.75 0.9 0  0.8 0.9 0  0.85 0.9 0  0.9 0.9 0  0.95 0.9 0  1 0.9 0  0 0.95 0  0.05 0.95 0  0.1 0.95 0  0.15 0.95 0  0.2 0.95 0  0.25 0.95 0  0.3 0.95 0  0.35 0.95 0  0.4 0.95 0  0.45 0.95 0  0.5 0.95 0  0.55 0.95 0  0.6 0.95 0  0.65 0.95 0  0.7 0.95 0  0.75 0.95 0  0.8 0.95 0  0.85 0.95 0  0.9 0.95 0  0.95 0.95 0  1 0.95 0  0 1 0  0.05 1 0  0.1 1 0  0.15 1 0  0.2 1 0  0.25 1 0  0.3 1 0  0.35 1 0  0.4 1 0  0.45 1 0  0.5 1 0  0.55 1 0  0.6 1 0  0.65 1 0  0.7 1 0  0.75 1 0  0.8 1 0  0.85 1 0  0.9 1 0  0.95 1 0  1 1 0  </DataArray>
</Points>
<Cells>
[...]
<PointData  Scalars="u"> 
<DataArray  type="Float64"  Name="u"  format="ascii">-6.6815635011264609e+00  -7.5870540292154001e+00  -8.2122979948551293e+00  -7.7805908903924594e+00  -6.8153179137373057e+00  -5.7805273507711945e+00  -4.7781571416305209e+00  -3.8350043739480002e+00  -2.9559119168365089e+00  -2.1371554944101487e+00  -1.3775862841371342e+00  -6.7929746487154596e-01  -4.6748937854646642e-02  5.1438644501183373e-01  9.9783720943491838e-01  1.3970150299695279e+00  1.7004973109862200e+00  1.8884422171317630e+00  1.8403715573432813e+00  1.4656316751952230e+00  -4.5433131607216354e-01  -6.9674291760002784e+00  -7.3588751490975897e+00  -7.8885956036924911e+00  -7.2312193325099381e+00  -6.2929108431796239e+00  -5.3627749307523498e+00  -4.4669585153883045e+00  -3.6271458909892340e+00  -2.8439588137521907e+00  -2.1133847744257244e+00  -1.4335705461930972e+00  -8.0455533429836923e-01  -2.2841319748074318e-01  2.9108872953165343e-01  7.4871014028710936e-01  1.1379181765122985e+00  1.4506193681468320e+00  1.6656726493540159e+00  1.7696494590417708e+00  1.5464226509355032e+00  8.9422976603696269e-01  -6.4217530365621815e+00  -6.9017586650020402e+00  -7.3671222140678978e+00  -6.6259425161726355e+00  -5.7881166528791725e+00  -4.9643863973955860e+00  -4.1701322217493519e+00  -3.4270922347805430e+00  -2.7315126287608038e+00  -2.0799172872021194e+00  -1.4703611865615254e+00  -9.0220068501656470e-01  -3.7652448905536129e-01  1.0408218411888621e-01  5.3565652586696966e-01  9.1360984571452031e-01  1.2327297952644110e+00  1.4870813448395268e+00  1.6804195808608451e+00  1.7034118528931954e+00  1.4146926603791936e+00  -5.8313921945780871e+00  -6.3661580600163745e+00  -6.7431537293431418e+00  -6.0400407068730164e+00  -5.3154663992529647e+00  -4.5854835676502663e+00  -3.8877802742144296e+00  -3.2335871656319530e+00  -2.6172386793664937e+00  -2.0364792971136296e+00  -1.4894916037431321e+00  -9.7564626327098181e-01  -4.9562203317144882e-01  -5.1182168671487518e-02  3.5501259509734856e-01  7.2031974667722320e-01  1.0433804460176137e+00  1.3251316897591425e+00  1.5843627798760382e+00  1.7427538952973185e+00  1.6583701052594764e+00  -5.2355432996591516e+00  -5.7747346318467558e+00  -6.1077349807717001e+00  -5.4911237642952910e+00  -4.8660165133760414e+00  -4.2271797014102619e+00  -3.6206417854865904e+00  -3.0464257131289223e+00  -2.5015029168365723e+00  -1.9842721584469807e+00  -1.4932464357523398e+00  -1.0281241346649901e+00  -5.8947186670389073e-01  -1.7855203729402855e-01  2.0295502230532889e-01  5.5399520648481571e-01  8.7566488020769284e-01  1.1730654604640312e+00  1.4706890715637220e+00  1.7075894476980027e+00  1.7553157227192406e+00  -4.6752540373497213e+00  -5.1979174426654762e+00  -5.5079259734198320e+00  -4.9805771440464186e+00  -4.4454298895178574e+00  -3.8944172187204020e+00  -3.3692580740589677e+00  -2.8664454354719204e+00  -2.3856462828435712e+00  -1.9251701707793323e+00  -1.4842271291038398e+00  -1.0629184101553928e+00  -6.6187891639476093e-01  -2.8212333227215974e-01  7.5309469098256074e-02  4.1037311550504213e-01  7.2555732035277332e-01  1.0278531003357079e+00  1.3429126322682388e+00  1.6221334673451742e+00  1.7481850788336306e+00  -4.1748668568499934e+00  -4.6642229374896598e+00  -4.9545280580109328e+00  -4.5108062268993603e+00  -4.0583477649143100e+00  -3.5871719519413410e+00  -3.1337886412961176e+00  -2.6949465412526532e+00  -2.2712461517754634e+00  -1.8613058910517799e+00  -1.4651493091867422e+00  -1.0832468829875537e+00  -7.1643582629369440e-01  -3.6567660133448737e-01  -3.1682846401350127e-02  2.8600929147641380e-01  5.9046140132498537e-01  8.8916631660584045e-01  1.2066864502439363e+00  1.5034882515741281e+00  1.6743891558167239e+00  -3.7387852414070633e+00  -4.1840170759066657e+00  -4.4531731567967219e+00  -4.0848113867578713e+00  -3.7058539167965585e+00  -3.3052381645029376e+00  -2.9152429404105931e+00  -2.5331269613768099e+00  -2.1598830813278407e+00  -1.7948393792735509e+00  -1.4386349207096421e+00  -1.0921281207213582e+00  -7.5644140983418207e-01  -4.3262095652733495e-01  -1.2130131289018768e-01  1.7812168426401767e-01  4.6873240275693018e-01  7.5771894832824260e-01  1.0673603504047371e+00  1.3652597881249131e+00  1.5589731610426290e+00  -3.3641088901782572e+00  -3.7594915916103444e+00  -4.0046046338900254e+00  -3.7021186734189628e+00  -3.3872256512816490e+00  -3.0484745313166464e+00  -2.7141166421969842e+00  -2.3818434645809581e+00  -2.0530585397549803e+00  -1.7277621122559748e+00  -1.4070780931261189e+00  -1.0922882670270300e+00  -7.8482728963526061e-01  -4.8592751582987431e-01  -1.9631874911720082e-01  8.4492146344443630e-02  3.5927058926933414e-01  6.3444814416641382e-01  9.2946508215619172e-01  1.2177439393882168e+00  1.4196290606215751e+00  -3.0451592280770523e+00  -3.3885278819082592e+00  -3.6069263445436515e+00  -3.3610831043785354e+00  -3.1014258178995151e+00  -2.8164610733817574e+00  -2.5305540668832061e+00  -2.2418462136619715e+00  -1.9520774476019427e+00  -1.6618012156113458e+00  -1.3725813848704962e+00  -1.0861058146244456e+00  -8.0412790401080003e-01  -5.2813272389425014e-01  -2.5905729645985881e-01  3.3226260725114426e-03  2.6125824182858903e-01  5.2019880228814552e-01  7.9656201269681937e-01  1.0686137117738126e+00  1.2691162931736641e+00  -2.7754293339672627e+00  -3.0671472506252808e+00  -3.2571114804788857e+00  -3.0594593372281262e+00  -2.8470085194319497e+00  -2.6084677231401820e+00  -2.3645089032561013e+00  -2.1136871966247468e+00  -1.8579775248169417e+00  -1.5984067563023518e+00  -1.3369278783719880e+00  -1.0755968584507258e+00  -8.1648620966316998e-01  -5.6136717512354251e-01  -3.1144907833637619e-01  -6.6865607357255136e-02  1.7402514999974247e-01  4.1560620279637095e-01  6.7131241918158213e-01  9.2349122814238627e-01  1.1166329376955815e+00  -2.5486034552461709e+00  -2.7908179754247273e+00  -2.9517594510071450e+00  -2.7947924121137140e+00  -2.6223938300715401e+00  -2.4236620272829144e+00  -2.2157983409026540e+00  -1.9977215180074421e+00  -1.7715651515981325e+00  -1.5387576075620115e+00  -1.3015838251044745e+00  -1.0624314972149598e+00  -8.2368035519055660e-01  -5.8739701008727740e-01  -3.5509427078209876e-01  -1.2730331054377234e-01  9.6980473036553660e-02  3.2107883095998885e-01  5.5561785393271534e-01  7.8640746681784723e-01  9.6875619073919372e-01  -2.3589978450068183e+00  -2.5551061279051868e+00  -2.6875198253620436e+00  -2.5646716624189043e+00  -2.4260068880540997e+00  -2.2611631849017426e+00  -2.0841303634313890e+00  -1.8941455457421310e+00  -1.6934406768281001e+00  -1.4837792041885201e+00  -1.2677268495365361e+00  -1.0479660144725911e+00  -8.2716169911379545e-01  -6.0766931921938494e-01  -3.9131111524794321e-01  -1.7902085010360913e-01  2.9584765259887284e-02  2.3682597533588176e-01  4.5077227313156970e-01  6.6017691773423437e-01  8.3011590724003681e-01  -2.2017116488645305e+00  -2.3559851584080787e+00  -2.4613132018239239e+00  -2.3668665485550493e+00  -2.2563617675448469e+00  -2.1201017527892136e+00  -1.9691541714553340e+00  -1.8030354326733959e+00  -1.6240300242263648e+00  -1.4341791343311492e+00  -1.2362833716724211e+00  -1.0332819400125954e+00  -8.2809761775474811e-01  -6.2335655723983441e-01  -4.2117825553352228e-01  -2.2288090157689336e-01  -2.8658127000222161e-02  1.6290112750632432e-01  3.5760411276263376e-01  5.4669998734797653e-01  7.0389824675163248e-01  -2.0726384194602678e+00  -2.1899600536318795e+00  -2.2704309050919758e+00  -2.1993945401873529e+00  -2.1121119663659829e+00  -1.9996595798612091e+00  -1.8704942672035161e+00  -1.7243797685352535e+00  -1.5636201046144758e+00  -1.3904846510373923e+00  -1.2079675000703358e+00  -1.0192273944230992e+00  -8.2741386722082921e-01  -6.3539750658954564e-01  -4.4557053242587108e-01  -2.5960174543413883e-01  -7.8199536011365159e-02  9.9248042299667272e-02  2.7659964854540081e-01  4.4720523034482262e-01  5.9223117666398617e-01  -1.9684165520736505e+00  -2.0540958019465450e+00  -2.1125682952035278e+00  -2.0605496658465214e+00  -1.9920776718582536e+00  -1.8990966418534643e+00  -1.7877792506527201e+00  -1.6581110607095058e+00  -1.5123926471201694e+00  -1.3530785600775341e+00  -1.1833191710015538e+00  -1.0064565613092324e+00  -8.2583373738620425e-01  -6.4453396984528544e-01  -4.6518918975466156e-01  -2.8977478597923989e-01  -1.1944192972473840e-01  4.5741292853108649e-02  2.0800485954446726e-01  3.6244160237807405e-01  4.9648195482915058e-01  -1.8863600813464492e+00  -1.9459965038857336e+00  -1.9858235324349691e+00  -1.9489084594972335e+00  -1.8952583194691406e+00  -1.8177685838513031e+00  -1.7206638871362154e+00  -1.6041315260940880e+00  -1.4704532319527031e+00  -1.3222310463221409e+00  -1.1627379276365248e+00  -9.9546424802112343e-01  -8.2391198289001533e-01  -6.5134173627094061e-01  -4.8058648310200741e-01  -3.1387844211418670e-01  -1.5273323103011435e-01  2.2250870762120607e-03  1.5191110887935352e-01  2.9282931304630644e-01  4.1748597720149710e-01  -1.8243513463322349e+00  -1.8637767984894640e+00  -1.8886841796356182e+00  -1.8633256363966888e+00  -1.8208395643183366e+00  -1.7551395116224446e+00  -1.6688474030932634e+00  -1.5623356484477386e+00  -1.4378572968831185e+00  -1.2981283171969991e+00  -1.1465133226721176e+00  -9.8661706607782140e-01  -8.2206537617706144e-01  -6.5625852346400249e-01  -4.9218852577615824e-01  -3.3229074467975034e-01  -1.7836245328966996e-01  -3.1466756452712699e-02  1.0830306490221953e-01  2.3856928207538830e-01  3.5572219666933652e-01  -1.7808739831850089e+00  -1.8060365373519853e+00  -1.8199756665468245e+00  -1.8029257691978058e+00  -1.7681867703434848e+00  -1.7107841216545918e+00  -1.6320814591664519e+00  -1.5326221760781942e+00  -1.4146253897932877e+00  -1.2808898928888732e+00  -1.1348434318383942e+00  -9.8017210085643780e-01  -8.2059029354804647e-01  -6.5959890604920479e-01  -5.0030495575478351e-01  -3.4529036849455813e-01  -1.9655339654721463e-01  -5.5479878280223147e-02  7.7159337268899467e-02  1.9977749513306153e-01  3.1144608431398541e-01  -1.7552856183558916e+00  -1.7715705491080564e+00  -1.7789638062690316e+00  -1.7671126052343844e+00  -1.7368661343859175e+00  -1.6844159260744893e+00  -1.6101959616035986e+00  -1.5149249369551163e+00  -1.4007748833250768e+00  -1.2706029704574395e+00  -1.1278710048306180e+00  -9.7631478031061281e-01  -8.1970156113478931e-01  -6.6159306638187820e-01  -5.0516597269547303e-01  -3.5309115284563181e-01  -2.0748803304432242e-01  -6.9938296600232819e-02  5.8383916583981635e-02  1.7630731209182920e-01  2.8472947055403280e-01  -1.7433832956376862e+00  -1.7602703407592790e+00  -1.7650895961173541e+00  -1.7553938163151930e+00  -1.7265926292145923e+00  -1.6757740125461025e+00  -1.6030452774875408e+00  -1.5091478648100305e+00  -1.3962679178021928e+00  -1.2672688316176119e+00  -1.1256296573386015e+00  -9.7510106752240644e-01  -8.1946914630022549e-01  -6.6231612126930328e-01  -5.0684273886978082e-01  -3.5575046384483172e-01  -2.1119980411108510e-01  -7.4846100148653005e-02  5.1991420272113044e-02  1.6845769885242101e-01  2.7608170552667838e-01  </DataArray> 
</PointData> 
</Piece>
</UnstructuredGrid>
</VTKFile>