<?xml version="1.0"?>
<VTKFile type="UnstructuredGrid"  version="0.1"  >
<UnstructuredGrid>
<Piece  NumberOfPoints="441" NumberOfCells="800">
<Points>
<DataArray  type="Float64"  NumberOfComponents="3"  format="ascii">0 0 0  0.05 0 0  0.1 0 0  0.15 0 0  0.2 0 0  0.25 0 0  0.3 0 0  0.35 0 0  0.4 0 0  0.45 0 0  0.5 0 0  0.55 0 0  0.6 0 0  0.65 0 0  0.7 0 0  0.75 0 0  0.8 0 0  0.85 0 0  0.9 0 0  0.95 0 0  1 0 0  0 0.05 0  0.05 0.05 0  0.1 0.05 0  0.15 0.05 0  0.2 0.05 0  0.25 0.05 0  0.3 0.05 0  0.35 0.05 0  0.4 0.05 0  0.45 0.05 0  0.5 0.05 0  0.55 0.05 0  0.6 0.05 0  0.65 0.05 0  0.7 0.05 0  0.75 0.05 0  0.8 0.05 0  0.85 0.05 0  0.9 0.05 0  0.95 0.05 0  1 0.05 0  0 0.1 0  0.05 0.1 0  0.1 0.1 0  0.15 0.1 0  0.2 0.1 0  0.25 0.1 0  0.3 0.1 0  0.35 0.1 0  0.4 0.1 0  0.45 0.1 0  0.5 0.1 0  0.55 0.1 0  0.6 0.1 0  0.65 0.1 0  0.7 0.1 0  0.75 0.1 0  0.8 0.1 0  0.85 0.1 0  0.9 0.1 0  0.95 0.1 0  1 0.1 0  0 0.15 0  0.05 0.15 0  0.1 0.15 0  0.15 0.15 0  0.2 0.15 0  0.25 0.15 0  0.3 0.15 0  0.35 0.15 0  0.4 0.15 0  0.45 0.15 0  0.5 0.15 0  0.55 0.15 0  0.6 0.15 0  0.65 0.15 0  0.7 0.15 0  0.75 0.15 0  0.8 0.15 0  0.85 0.15 0  0.9 0.15 0  0.95 0.15 0  1 0.15 0  0 0.2 0  0.05 0.2 0  0.1 0.2 0  0.15 0.2 0  0.2 0.2 0  0.25 0.2 0  0.3 0.2 0  0.35 0.2 0  0.4 0.2 0  0.45 0.2 0  0.5 0.2 0  0.55 0.2 0  0.6 0.2 0  0.65 0.2 0  0.7 0.2 0  0.75 0.2 0  0.8 0.2 0  0.85 0.2 0  0.9 0.2 0  0.95 0.2 0  1 0.2 0  0 0.25 0  0.05 0.25 0  0.1 0.25 0  0.15 0.25 0  0.2 0.25 0  0.25 0.25 0  0.3 0.25 0  0.35 0.25 0  0.4 0.25 0  0.45 0.25 0  0.5 0.25 0  0.55 0.25 0  0.6 0.25 0  0.65 0.25 0  0.7 0.25 0  0.75 0.25 0  0.8 0.25 0  0.85 0.25 0  0.9 0.25 0  0.95 0.25 0  1 0.25 0  0 0.3 0  0.05 0.3 0  0.1 0.3 0  0.15 0.3 0  0.2 0.3 0  0.25 0.3 0  0.3 0.3 0  0.35 0.3 0  0.4 0.3 0  0.45 0.3 0  0.5 0.3 0  0.55 0.3 0  0.6 0.3 0  0.65 0.3 0  0.7 0.3 0  0.75 0.3 0  0.8 0.3 0  0.85 0.3 0  0.9 0.3 0  0.95 0.3 0  1 0.3 0  0 0.35 0  0.05 0.35 0  0.1 0.35 0  0.15 0.35 0  0.2 0.35 0  0.25 0.35 0  0.3 0.35 0  0.35 0.35 0  0.4 0.35 0  0.45 0.35 0  0.5 0.35 0  0.55 0.35 0  0.6 0.35 0  0.65 0.35 0  0.7 0.35 0  0.75 0.35 0  0.8 0.35 0  0.85 0.35 0  0.9 0.35 0  0.95 0.35 0  1 0.35 0  0 0.4 0  0.05 0.4 0  0.1 0.4 0  0.15 0.4 0  0.2 0.4 0  0.25 0.4 0  0.3 0.4 0  0.35 0.4 0  0.4 0.4 0  0.45 0.4 0  0.5 0.4 0  0.55 0.4 0  0.6 0.4 0  0.65 0.4 0  0.7 0.4 0  0.75 0.4 0  0.8 0.4 0  0.85 0.4 0  0.9 0.4 0  0.95 0.4 0  1 0.4 0  0 0.45 0  0.05 0.45 0  0.1 0.45 0  0.15 0.45 0  0.2 0.45 0  0.25 0.45 0  0.3 0.45 0  0.35 0.45 0  0.4 0.45 0  0.45 0.45 0  0.5 0.45 0  0.55 0.45 0  0.6 0.45 0  0.65 0.45 0  0.7 0.45 0  0.75 0.45 0  0.8 0.45 0  0.85 0.45 0  0.9 0.45 0  0.95 0.45 0  1 0.45 0  0 0.5 0  0.05 0.5 0  0.1 0.5 0  0.15 0.5 0  0.2 0.5 0  0.25 0.5 0  0.3 0.5 0  0.35 0.5 0  0.4 0.5 0  0.45 0.5 0  0.5 0.5 0  0.55 0.5 0  0.6 0.5 0  0.65 0.5 0  0.7 0.5 0  0.75 0.5 0  0.8 0.5 0  0.85 0.5 0  0.9 0.5 0  0.95 0.5 0  1 0.5 0  0 0.55 0  0.05 0.55 0  0.1 0.55 0  0.15 0.55 0  0.2 0.55 0  0.25 0.55 0  0.3 0.55 0  0.35 0.55 0  0.4 0.55 0  0.45 0.55 0  0.5 0.55 0  0.55 0.55 0  0.6 0.55 0  0.65 0.55 0  0.7 0.55 0  0.75 0.55 0  0.8 0.55 0  0.85 0.55 0  0.9 0.55 0  0.95 0.55 0  1 0.55 0  0 0.6 0  0.05 0.6 0  0.1 0.6 0  0.15 0.6 0  0.2 0.6 0  0.25 0.6 0  0.3 0.6 0  0.35 0.6 0  0.4 0.6 0  0.45 0.6 0  0.5 0.6 0  0.55 0.6 0  0.6 0.6 0  0.65 0.6 0  0.7 0.6 0  0.75 0.6 0  0.8 0.6 0  0.85 0.6 0  0.9 0.6 0  0.95 0.6 0  1 0.6 0  0 0.65 0  0.05 0.65 0  0.1 0.65 0  0.15 0.65 0  0.2 0.65 0  0.25 0.65 0  0.3 0.65 0  0.35 0.65 0  0.4 0.65 0  0.45 0.65 0  0.5 0.65 0  0.55 0.65 0  0.6 0.65 0  0.65 0.65 0  0.7 0.65 0  0.75 0.65 0  0.8 0.65 0  0.85 0.65 0  0.9 0.65 0  0.95 0.65 0  1 0.65 0  0 0.7 0  0.05 0.7 0  0.1 0.7 0  0.15 0.7 0  0.2 0.7 0  0.25 0.7 0  0.3 0.7 0  0.35 0.7 0  0.4 0.7 0  0.45 0.7 0  0.5 0.7 0  0.55 0.7 0  0.6 0.7 0  0.65 0.7 0  0.7 0.7 0  0.75 0.7 0  0.8 0.7 0  0.85 0.7 0  0.9 0.7 0  0.95 0.7 0  1 0.7 0  0 0.75 0  0.05 0.75 0  0.1 0.75 0  0.15 0.75 0  0.2 0.75 0  0.25 0.75 0  0.3 0.75 0  0.35 0.75 0  0.4 0.75 0  0.45 0.75 0  0.5 0.75 0  0.55 0.75 0  0.6 0.75 0  0.65 0.75 0  0.7 0.75 0  0.75 0.75 0  0.8 0.75 0  0.85 0.75 0  0.9 0.75 0  0.95 0.75 0  1 0.75 0  0 0.8 0  0.05 0.8 0  0.1 0.8 0  0.15 0.8 0  0.2 0.8 0  0.25 0.8 0  0.3 0.8 0  0.35 0.8 0  0.4 0.8 0  0.45 0.8 0  0.5 0.8 0  0.55 0.8 0  0.6 0.8 0  0.65 0.8 0  0.7 0.8 0  0.75 0.8 0  0.8 0.8 0  0.85 0.8 0  0.9 0.8 0  0.95 0.8 0  1 0.8 0  0 0.85 0  0.05 0.85 0  0.1 0.85 0  0.15 0.85 0  0.2 0.85 0  0.25 0.85 0  0.3 0.85 0  0.35 0.85 0  0.4 0.85 0  0.45 0.85 0  0.5 0.85 0  0.55 0.85 0  0.6 0.85 0  0.65 0.85 0  0.7 0.85 0  0.75 0.85 0  0.8 0.85 0  0.85 0.85 0  0.9 0.85 0  0.95 0.85 0  1 0.85 0  0 0.9 0  0.05 0.9 0  0.1 0.9 0  0.15 0.9 0  0.2 0.9 0  0.25 0.9 0  0.3 0.9 0  0.35 0.9 0  0.4 0.9 0  0.45 0.9 0  0.5 0.9 0  0.55 0.9 0  0.6 0.9 0  0.65 0.9 0  0.7 0.9 0  0.75 0.9 0  0.8 0.9 0  0.85 0.9 0  0.9 0.9 0  0.95 0.9 0  1 0.9 0  0 0.95 0  0.05 0.95 0  0.1 0.95 0  0.15 0.95 0  0.2 0.95 0  0.25 0.95 0  0.3 0.95 0  0.35 0.95 0  0.4 0.95 0  0.45 0.95 0  0.5 0.95 0  0.55 0.95 0  0.6 0.95 0  0.65 0.95 0  0.7 0.95 0  0.75 0.95 0  0.8 0.95 0  0.85 0.95 0  0.9 0.95 0  0.95 0.95 0  1 0.95 0  0 1 0  0.05 1 0  0.1 1 0  0.15 1 0  0.2 1 0  0.25 1 0  0.3 1 0  0.35 1 0  0.4 1 0  0.45 1 0  0.5 1 0  0.55 1 0  0.6 1 0  0.65 1 0  0.7 1 0  0.75 1 0  0.8 1 0  0.85 1 0  0.9 1 0  0.95 1 0  1 1 0  </DataArray>
</Points>
<Cells>
[...]
<PointData  Scalars="u"> 
<DataArray  type="Float64"  Name="u"  format="ascii">6.6815639872877126e+00  7.5868387534933470e+00  8.2119026101711636e+00  7.7801826363275781e+00  6.8150684183726247e+00  5.7804505079712474e+00  4.7781820053836190e+00  3.8350718201058966e+00  2.9559901239134039e+00  2.1372308870705243e+00  1.3776555242621598e+00  6.7936194781910830e-01  4.6811568438680472e-02  -5.1432317921070736e-01  -9.9777202127279552e-01  -1.3969495703865527e+00  -1.7004363899107557e+00  -1.8884078062419405e+00  -1.8403877273505616e+00  -1.4657398894892910e+00  4.5435738522723201e-01  6.9672560805712518e+00  7.3585969162622131e+00  7.8881908301313084e+00  7.2308698222927834e+00  6.2927238483804198e+00  5.3627208201501597e+00  4.4669753802330918e+00  3.6271942805126121e+00  2.8440176866762585e+00  2.1134445226258474e+00  1.4336282313597875e+00  8.0461125832836222e-01  2.2846893413944289e-01  -2.9103156397361507e-01  -7.4865060455193289e-01  -1.1378569350420076e+00  -1.4505594492438068e+00  -1.6656263320166016e+00  -1.7696359982272889e+00  -1.5464985136056084e+00  -8.9430602852582730e-01  6.4215564583154991e+00  6.9014775671717423e+00  7.3667493826713395e+00  6.6256570074749224e+00  5.7879739020795302e+00  4.9643433111793716e+00  4.1701419885702968e+00  3.4271270563160630e+00  2.7315570978444250e+00  2.0799644041069034e+00  1.4704086062035615e+00  9.0224830984088700e-01  3.7657322285632533e-01  -1.0403126243763212e-01  -5.3560260272285432e-01  -9.1355305767947437e-01  -1.2326712907754664e+00  -1.4870296759280905e+00  -1.6803909670866126e+00  -1.7034743990395609e+00  -1.4148193472665411e+00  5.8312157475224788e+00  6.3658987664241087e+00  6.7428307051211034e+00  6.0398099249354535e+00  5.3153514441016636e+00  4.5854469681537067e+00  3.8877855564080077e+00  3.2336122236109470e+00  2.6172721132737431e+00  2.0365161720493514e+00  1.4895301467927029e+00  9.7568628047481210e-01  4.9566408193445327e-01  5.1227013214648141e-02  -3.5496423290332718e-01  -7.2026767917914747e-01  -1.0433248872808252e+00  -1.3250795484988993e+00  -1.5843278796535132e+00  -1.7428086229178266e+00  -1.6584997515249027e+00  5.2353992105891800e+00  5.7745120083731969e+00  6.1074652158612786e+00  5.4909366176619256e+00  4.8659225979064482e+00  4.2271490406861609e+00  3.6206439412226596e+00  3.0464434540335037e+00  2.5015279765099492e+00  1.9843008953027144e+00  1.4932775264213565e+00  1.0281574237718454e+00  5.8950774912269011e-01  1.7859110109006188e-01  -2.0291212936001976e-01  -5.5394814728744901e-01  -8.7561345407887992e-01  -1.1730154159477511e+00  -1.4706524258053046e+00  -1.7076357240768527e+00  -1.7554370416537788e+00  4.6751439443385960e+00  5.1977349324318931e+00  5.5077041394701256e+00  4.9804248455477333e+00  4.4453531141901808e+00  3.8943913543301423e+00  3.3692579349687857e+00  2.8664578767258941e+00  2.3856650085814692e+00  1.9251924554018305e+00  1.4842520567271760e+00  1.0629458964439520e+00  6.6190927581503156e-01  2.8215704227869010e-01  -7.5271836620212126e-02  -4.1033118168505311e-01  -7.2551071710120163e-01  -1.0278066801973309e+00  -1.3428767034500833e+00  -1.6221718828741105e+00  -1.7482939445125336e+00  4.1747865908505748e+00  4.6640773112118366e+00  4.9543472209037116e+00  4.5106825329243696e+00  4.0582851409792582e+00  3.5871500775734400e+00  3.1337870900950384e+00  2.6949551388433317e+00  2.2712600355650774e+00  1.8613230940028862e+00  1.4651692110095218e+00  1.0832694583103013e+00  7.1646134557390617e-01  3.6570546052609076e-01  3.1715537455620502e-02  -2.8597240520591649e-01  -5.9041991077145339e-01  -8.8912430638083206e-01  -1.2066526531244894e+00  -1.5035196450415074e+00  -1.6744840226707534e+00  3.7387289091099363e+00  4.1839029899773132e+00  4.4530268294282980e+00  4.0847112650015136e+00  3.7058029023520178e+00  3.3052196888590881e+00  2.9152405506147736e+00  2.5331327142570816e+00  2.1598932712612795e+00  1.7948525980330117e+00  1.4386507534748103e+00  1.0921465936202093e+00  7.5646275833386445e-01  4.3264550493466675e-01  1.2132946912975309e-01  -1.7808960357424164e-01  -4.6869601290067575e-01  -7.5768166372869949e-01  -1.0673295001244414e+00  -1.3652850447311182e+00  -1.5590540127294490e+00  3.3640709124687072e+00  3.7594035263327483e+00  4.0044871215353428e+00  3.7020380105676858e+00  3.3871842098235292e+00  3.0484589662485337e+00  2.7141137659609873e+00  2.3818471059829021e+00  2.0530659059807728e+00  1.7277722027383873e+00  1.4070906490719894e+00  1.0923033471690144e+00  7.8484509151795179e-01  4.8594829557962754e-01  1.9634282796099511e-01  -8.4464515462619613e-02  -3.5923908172077756e-01  -6.3441559188479713e-01  -9.2943758345579597e-01  -1.2177639120668577e+00  -1.4196966069981765e+00  3.0451349426102232e+00  3.3884608871218092e+00  3.6068328341229878e+00  3.3610185545733215e+00  3.1013922826711946e+00  2.8164479591045093e+00  2.5305509074078310e+00  2.2418482678373399e+00  1.9520826364210340e+00  1.6618088463818266e+00  1.3725913114630313e+00  1.0861181083033800e+00  8.0414272159089395e-01  5.2815025420987738e-01  2.5907777316396385e-01  -3.2990225987434502e-03  -2.6123126671761260e-01  -5.2017078608257361e-01  -7.9653798790741204e-01  -1.0686291759617801e+00  -1.2691715985705885e+00  2.7754150715018593e+00  3.0670971683252488e+00  3.2570379662926698e+00  3.0594081625536669e+00  2.8469815114205934e+00  2.6084566419581301e+00  2.3645055715142074e+00  2.1136880355634364e+00  1.8579810198105171e+00  1.5984124482678834e+00  1.3369356980414795e+00  1.0756068757471580e+00  8.1649853797157346e-01  5.6138193659225721e-01  3.1146642058716051e-01  6.6885634506812480e-02  -1.7400228245461144e-01  -4.1558239854033230e-01  -6.7129179497557345e-01  -9.2350286524590397e-01  -1.1166772189507936e+00  2.5485964267484773e+00  2.7907814174276515e+00  2.9517026034598461e+00  2.7947523543105417e+00  2.6223722035858454e+00  2.4236526079132590e+00  2.2157948880176352e+00  1.9977214061496438e+00  1.7715673160970387e+00  1.5387617656017358e+00  1.3015899577687720e+00  1.0624396632038915e+00  8.2369062278038219e-01  5.8740943683239288e-01  3.5510892196173910e-01  1.2732021402784369e-01  -9.6961253738016062e-02  -3.2105884002353624e-01  -5.5560042559520739e-01  -7.8641586595364965e-01  -9.6879070517413768e-01  2.3589959759702950e+00  2.5550803653567389e+00  2.6874768580511290e+00  2.5646408382388173e+00  2.4259896855688625e+00  2.2611551040866762e+00  2.0841268072984565e+00  1.8941446748435837e+00  1.6934417867254508e+00  1.4837821446921895e+00  1.2677316328319850e+00  1.0479726814466830e+00  8.2717027321507419e-01  6.0767979699602748e-01  3.9132348511234472e-01  1.7903506659338692e-01  -2.9568728115357157e-02  -2.3680936224464619e-01  -4.5075775256154205e-01  -6.6018258603901836e-01  -8.3014189195178623e-01  2.2017134197726422e+00  2.3559679937788767e+00  2.4612817532688624e+00  2.3668433646596778e+00  2.2563481825773777e+00  2.1200947343398635e+00  1.9691505144558459e+00  1.8030339461759108e+00  1.6240302927125834e+00  1.4341811070657795e+00  1.2362870782339532e+00  1.0332873998688024e+00  8.2810481155459215e-01  6.2336542539155659e-01  4.2118871657079715e-01  2.2289284181979790e-01  2.8671437275257033e-02  -1.6288744556742221e-01  -3.5759216368086816e-01  -5.4670336380209050e-01  -7.0391688862800328e-01  2.0726427311071975e+00  2.1899497027257171e+00  2.2704089401132985e+00  2.1993776253502326e+00  2.1121013127028143e+00  1.9996533911060534e+00  1.8704905073775815e+00  1.7243777789210057e+00  1.5636197007542041e+00  1.3904858563103819e+00  1.2079703521105500e+00  1.0192318901208628e+00  8.2741994787363249e-01  6.3540506240740957e-01  4.4557942018022478e-01  2.5961178994000428e-01  7.8210553901589153e-02  -9.9236850022580009e-02  -2.7658991137148464e-01  -4.4720669995853995e-01  -5.9224360070882920e-01  1.9684226179623276e+00  2.0540907946831837e+00  2.1125540255762916e+00  2.0605378174057316e+00  1.9920693578903741e+00  1.8990910884955776e+00  1.7877753882026961e+00  1.6581086613661447e+00  1.5123917093717660e+00  1.3530791619583034e+00  1.1833213522446908e+00  1.0064602969818857e+00  8.2583893400564123e-01  6.4454047416193128e-01  4.6519680566550192e-01  2.8978328465205783e-01  1.1945106453802477e-01  -4.5732163312510274e-02  -2.0799696793520470e-01  -3.6244150907912953e-01  -4.9648922327582751e-01  1.8863673447518299e+00  1.9459956044799811e+00  1.9858153540830989e+00  1.9489006011517396e+00  1.8952518267842116e+00  1.8177635040165776e+00  1.7206599276457784e+00  1.6041287991677466e+00  1.4704518779111724e+00  1.3222311827429998e+00  1.1627395929501212e+00  9.9546739769292025e-01  8.2391649406811684e-01  6.5134741952588904e-01  4.8059309889100255e-01  3.1388571652482589e-01  1.5274086630425837e-01  -2.2176124004635576e-03  -1.5190469995782724e-01  -2.9282797059552951e-01  -4.1748909471647672e-01  1.8243594160697214e+00  1.8637789412362440e+00  1.8886806230784865e+00  1.8633207847684576e+00  1.8208344297742434e+00  1.7551347696705331e+00  1.6688433585788491e+00  1.5623326698618765e+00  1.4378556302093157e+00  1.2981281075960935e+00  1.1465146057596916e+00  9.8661978103198611e-01  8.2206937677299463e-01  6.5626359176568638e-01  4.9219438853632164e-01  3.3229709174180017e-01  1.7836894902113321e-01  3.1472965122786412e-02  -1.0829778337857232e-01  -2.3856698241860985e-01  -3.5572211881962029e-01  1.7808825782818536e+00  1.8060407791759374e+00  1.8199753592019345e+00  1.8029230067934978e+00  1.7681825709290020e+00  1.7107796019430055e+00  1.6320773476097366e+00  1.5326190185015800e+00  1.4146235050624378e+00  1.2808894440152752e+00  1.1348444514538447e+00  9.8017451594416816e-01  8.2059394090148241e-01  6.5960354719797931e-01  5.0031029342812394e-01  3.4529606570271504e-01  1.9655909355733139e-01  5.5485191506655970e-02  -7.7154839767780384e-02  -1.9977451807706809e-01  -3.1144372795534214e-01  1.7552945462035443e+00  1.7715760313536109e+00  1.7789654307361606e+00  1.7671110556758562e+00  1.7368624740721126e+00  1.6844115270388642e+00  1.6101918061423652e+00  1.5149216717347014e+00  1.4007728696959307e+00  1.2706023809024427e+00  1.1278718697686483e+00  9.7631701911582702e-01  8.1970500027724880e-01  6.6159745498279121e-01  5.0517099899332407e-01  3.5309646346667534e-01  2.0749325558954990e-01  6.9943071800916620e-02  -5.8379862471511799e-02  -1.7630391704731374e-01  -2.8472572069456276e-01  1.7433924530176446e+00  1.7602762265466967e+00  1.7650918859307352e+00  1.7553926470673484e+00  1.7265891287978663e+00  1.6757696434918139e+00  1.6030411027753597e+00  1.5091445620290074e+00  1.3962658604764282e+00  1.2672681949890265e+00  1.1256304706414546e+00  9.7510324749790400e-01  8.1947251586181580e-01  6.6232042533570223e-01  5.0684766075946286e-01  3.5575564471011323e-01  2.1120486758187013e-01  7.4850695245007745e-02  -5.1987492490538433e-02  -1.6845416168004371e-01  -2.7607746633288704e-01  </DataArray> 
</PointData> 
</Piece>
</UnstructuredGrid>
</VTKFile>