<?xml version="1.0"?>
<VTKFile type="UnstructuredGrid"  version="0.1"  >
<UnstructuredGrid>
<Piece  NumberOfPoints="441" NumberOfCells="800">
<Points>
<DataArray  type="Float64"  NumberOfComponents="3"  format="ascii">0 0 0  0.05 0 0  0.1 0 0  0.15 0 0  0.2 0 0  0.25 0 0  0.3 0 0  0.35 0 0  0.4 0 0  0.45 0 0  0.5 0 0  0.55 0 0  0.6 0 0  0.65 0 0  0.7 0 0  0.75 0 0  0.8 0 0  0.85 0 0  0.9 0 0  0.95 0 0  1 0 0  0 0.05 0  0.05 0.05 0  0.1 0.05 0  0.15 0.05 0  0.2 0.05 0  0.25 0.05 0  0.3 0.05 0  0.35 0.05 0  0.4 0.05 0  0.45 0.05 0  0.5 0.05 0  0.55 0.05 0  0.6 0.05 0  0.65 0.05 0  0.7 0.05 0  0.75 0.05 0  0.8 0.05 0  0.85 0.05 0  0.9 0.05 0  0.95 0.05 0  1 0.05 0  0 0.1 0  0.05 0.1 0  0.1 0.1 0  0.15 0.1 0  0.2 0.1 0  0.25 0.1 0  0.3 0.1 0  0.35 0.1 0  0.4 0.1 0  0.45 0.1 0  0.5 0.1 0  0.55 0.1 0  0.6 0.1 0  0.65 0.1 0  0.7 0.1 0  0.75 0.1 0  0.8 0.1 0  0.85 0.1 0  0.9 0.1 0  0.95 0.1 0  1 0.1 0  0 0.15 0  0.05 0.15 0  0.1 0.15 0  0.15 0.15 0  0.2 0.15 0  0.25 0.15 0  0.3 0.15 0  0.35 0.15 0  0.4 0.15 0  0.45 0.15 0  0.5 0.15 0  0.55 0.15 0  0.6 0.15 0  0.65 0.15 0  0.7 0.15 0  0.75 0.15 0  0.8 0.15 0  0.85 0.15 0  0.9 0.15 0  0.95 0.15 0  1 0.15 0  0 0.2 0  0.05 0.2 0  0.1 0.2 0  0.15 0.2 0  0.2 0.2 0  0.25 0.2 0  0.3 0.2 0  0.35 0.2 0  0.4 0.2 0  0.45 0.2 0  0.5 0.2 0  0.55 0.2 0  0.6 0.2 0  0.65 0.2 0  0.7 0.2 0  0.75 0.2 0  0.8 0.2 0  0.85 0.2 0  0.9 0.2 0  0.95 0.2 0  1 0.2 0  0 0.25 0  0.05 0.25 0  0.1 0.25 0  0.15 0.25 0  0.2 0.25 0  0.25 0.25 0  0.3 0.25 0  0.35 0.25 0  0.4 0.25 0  0.45 0.25 0  0.5 0.25 0  0.55 0.25 0  0.6 0.25 0  0.65 0.25 0  0.7 0.25 0  0.75 0.25 0  0.8 0.25 0  0.85 0.25 0  0.9 0.25 0  0.95 0.25 0  1 0.25 0  0 0.3 0  0.05 0.3 0  0.1 0.3 0  0.15 0.3 0  0.2 0.3 0  0.25 0.3 0  0.3 0.3 0  0.35 0.3 0  0.4 0.3 0  0.45 0.3 0  0.5 0.3 0  0.55 0.3 0  0.6 0.3 0  0.65 0.3 0  0.7 0.3 0  0.75 0.3 0  0.8 0.3 0  0.85 0.3 0  0.9 0.3 0  0.95 0.3 0  1 0.3 0  0 0.35 0  0.05 0.35 0  0.1 0.35 0  0.15 0.35 0  0.2 0.35 0  0.25 0.35 0  0.3 0.35 0  0.35 0.35 0  0.4 0.35 0  0.45 0.35 0  0.5 0.35 0  0.55 0.35 0  0.6 0.35 0  0.65 0.35 0  0.7 0.35 0  0.75 0.35 0  0.8 0.35 0  0.85 0.35 0  0.9 0.35 0  0.95 0.35 0  1 0.35 0  0 0.4 0  0.05 0.4 0  0.1 0.4 0  0.15 0.4 0  0.2 0.4 0  0.25 0.4 0  0.3 0.4 0  0.35 0.4 0  0.4 0.4 0  0.45 0.4 0  0.5 0.4 0  0.55 0.4 0  0.6 0.4 0  0.65 0.4 0  0.7 0.4 0  0.75 0.4 0  0.8 0.4 0  0.85 0.4 0  0.9 0.4 0  0.95 0.4 0  1 0.4 0  0 0.45 0  0.05 0.45 0  0.1 0.45 0  0.15 0.45 0  0.2 0.45 0  0.25 0.45 0  0.3 0.45 0  0.35 0.45 0  0.4 0.45 0  0.45 0.45 0  0.5 0.45 0  0.55 0.45 0  0.6 0.45 0  0.65 0.45 0  0.7 0.45 0  0.75 0.45 0  0.8 0.45 0  0.85 0.45 0  0.9 0.45 0  0.95 0.45 0  1 0.45 0  0 0.5 0  0.05 0.5 0  0.1 0.5 0  0.15 0.5 0  0.2 0.5 0  0.25 0.5 0  0.3 0.5 0  0.35 0.5 0  0.4 0.5 0  0.45 0.5 0  0.5 0.5 0  0.55 0.5 0  0.6 0.5 0  0.65 0.5 0  0.7 0.5 0  0.75 0.5 0  0.8 0.5 0  0.85 0.5 0  0.9 0.5 0  0.95 0.5 0  1 0.5 0  0 0.55 0  0.05 0.55 0  0.1 0.55 0  0.15 0.55 0  0.2 0.55 0  0.25 0.55 0  0.3 0.55 0  0.35 0.55 0  0.4 0.55 0  0.45 0.55 0  0.5 0.55 0  0.55 0.55 0  0.6 0.55 0  0.65 0.55 0  0.7 0.55 0  0.75 0.55 0  0.8 0.55 0  0.85 0.55 0  0.9 0.55 0  0.95 0.55 0  1 0.55 0  0 0.6 0  0.05 0.6 0  0.1 0.6 0  0.15 0.6 0  0.2 0.6 0  0.25 0.6 0  0.3 0.6 0  0.35 0.6 0  0.4 0.6 0  0.45 0.6 0  0.5 0.6 0  0.55 0.6 0  0.6 0.6 0  0.65 0.6 0  0.7 0.6 0  0.75 0.6 0  0.8 0.6 0  0.85 0.6 0  0.9 0.6 0  0.95 0.6 0  1 0.6 0  0 0.65 0  0.05 0.65 0  0.1 0.65 0  0.15 0.65 0  0.2 0.65 0  0.25 0.65 0  0.3 0.65 0  0.35 0.65 0  0.4 0.65 0  0.45 0.65 0  0.5 0.65 0  0.55 0.65 0  0.6 0.65 0  0.65 0.65 0  0.7 0.65 0  0.75 0.65 0  0.8 0.65 0  0.85 0.65 0  0.9 0.65 0  0.95 0.65 0  1 0.65 0  0 0.7 0  0.05 0.7 0  0.1 0.7 0  0.15 0.7 0  0.2 0.7 0  0.25 0.7 0  0.3 0.7 0  0.35 0.7 0  0.4 0.7 0  0.45 0.7 0  0.5 0.7 0  0.55 0.7 0  0.6 0.7 0  0.65 0.7 0  0.7 0.7 0  0.75 0.7 0  0.8 0.7 0  0.85 0.7 0  0.9 0.7 0  0.95 0.7 0  1 0.7 0  0 0.75 0  0.05 0.75 0  0.1 0.75 0  0.15 0.75 0  0.2 0.75 0  0.25 0.75 0  0.3 0.75 0  0.35 0.75 0  0.4 0.75 0  0.45 0.75 0  0.5 0.75 0  0.55 0.75 0  0.6 0.75 0  0.65 0.75 0  0.7 0.75 0  0.75 0.75 0  0.8 0.75 0  0.85 0.75 0  0.9 0.75 0  0.95 0.75 0  1 0.75 0  0 0.8 0  0.05 0.8 0  0.1 0.8 0  0.15 0.8 0  0.2 0.8 0  0.25 0.8 0  0.3 0.8 0  0.35 0.8 0  0.4 0.8 0  0.45 0.8 0  0.5 0.8 0  0.55 0.8 0  0.6 0.8 0  0.65 0.8 0  0.7 0.8 0  0.75 0.8 0  0.8 0.8 0  0.85 0.8 0  0.9 0.8 0  0.95 0.8 0  1 0.8 0  0 0.85 0  0.05 0.85 0  0.1 0.85 0  0.15 0.85 0  0.2 0.85 0  0.25 0.85 0  0.3 0.85 0  0.35 0.85 0  0.4 0.85 0  0.45 0.85 0  0.5 0.85 0  0.55 0.85 0  0.6 0.85 0  0.65 0.85 0  0.7 0.85 0  0.75 0.85 0  0.8 0.85 0  0.85 0.85 0  0.9 0.85 0  0.95 0.85 0  1 0.85 0  0 0.9 0  0.05 0.9 0  0.1 0.9 0  0.15 0.9 0  0.2 0.9 0  0.25 0.9 0  0.3 0.9 0  0.35 0.9 0  0.4 0.9 0  0.45 0.9 0  0.5 0.9 0  0.55 0.9 0  0.6 0.9 0  0.65 0.9 0  0.7 0.9 0  0.75 0.9 0  0.8 0.9 0  0.85 0.9 0  0.9 0.9 0  0.95 0.9 0  1 0.9 0  0 0.95 0  0.05 0.95 0  0.1 0.95 0  0.15 0.95 0  0.2 0.95 0  0.25 0.95 0  0.3 0.95 0  0.35 0.95 0  0.4 0.95 0  0.45 0.95 0  0.5 0.95 0  0.55 0.95 0  0.6 0.95 0  0.65 0.95 0  0.7 0.95 0  0.75 0.95 0  0.8 0.95 0  0.85 0.95 0  0.9 0.95 0  0.95 0.95 0  1 0.95 0  0 1 0  0.05 1 0  0.1 1 0  0.15 1 0  0.2 1 0  0.25 1 0  0.3 1 0  0.35 1 0  0.4 1 0  0.45 1 0  0.5 1 0  0.55 1 0  0.6 1 0  0.65 1 0  0.7 1 0  0.75 1 0  0.8 1 0  0.85 1 0  0.9 1 0  0.95 1 0  1 1 0  </DataArray>
</Points>
<Cells>
[...]
<PointData  Vectors="u"> 
<DataArray  type="Float64"  Name="u"  NumberOfComponents="3" format="ascii">0.0000000000000000e+00 0.0000000000000000e+00 0.0000000000000000e+00  0.0000000000000000e+00 0.0000000000000000e+00 0.0000000000000000e+00  0.0000000000000000e+00 0.0000000000000000e+00 0.0000000000000000e+00  0.0000000000000000e+00 0.0000000000000000e+00 0.0000000000000000e+00  0.0000000000000000e+00 0.0000000000000000e+00 0.0000000000000000e+00  0.0000000000000000e+00 0.0000000000000000e+00 0.0000000000000000e+00  0.0000000000000000e+00 0.0000000000000000e+00 0.0000000000000000e+00  0.0000000000000000e+00 0.0000000000000000e+00 0.0000000000000000e+00  0.0000000000000000e+00 0.0000000000000000e+00 0.0000000000000000e+00  0.0000000000000000e+00 0.0000000000000000e+00 0.0000000000000000e+00  0.0000000000000000e+00 0.0000000000000000e+00 0.0000000000000000e+00  0.0000000000000000e+00 0.0000000000000000e+00 0.0000000000000000e+00  0.0000000000000000e+00 0.0000000000000000e+00 0.0000000000000000e+00  0.0000000000000000e+00 0.0000000000000000e+00 0.0000000000000000e+00  0.0000000000000000e+00 0.0000000000000000e+00 0.0000000000000000e+00  0.0000000000000000e+00 0.0000000000000000e+00 0.0000000000000000e+00  0.0000000000000000e+00 0.0000000000000000e+00 0.0000000000000000e+00  0.0000000000000000e+00 0.0000000000000000e+00 0.0000000000000000e+00  0.0000000000000000e+00 0.0000000000000000e+00 0.0000000000000000e+00  0.0000000000000000e+00 0.0000000000000000e+00 0.0000000000000000e+00  0.0000000000000000e+00 0.0000000000000000e+00 0.0000000000000000e+00  0.0000000000000000e+00 0.0000000000000000e+00 0.0000000000000000e+00  0.0000000000000000e+00 0.0000000000000000e+00 0.0000000000000000e+00  0.0000000000000000e+00 0.0000000000000000e+00 0.0000000000000000e+00  0.0000000000000000e+00 0.0000000000000000e+00 0.0000000000000000e+00  0.0000000000000000e+00 0.0000000000000000e+00 0.0000000000000000e+00  0.0000000000000000e+00 0.0000000000000000e+00 0.0000000000000000e+00  0.0000000000000000e+00 0.0000000000000000e+00 0.0000000000000000e+00  0.0000000000000000e+00 0.0000000000000000e+00 0.0000000000000000e+00  0.0000000000000000e+00 0.0000000000000000e+00 0.0000000000000000e+00  0.0000000000000000e+00 0.0000000000000000e+00 0.0000000000000000e+00  -3.0889627924561062e-16 0.0000000000000000e+00 0.0000000000000000e+00  -3.0665809044961126e-16 0.0000000000000000e+00 0.0000000000000000e+00  0.0000000000000000e+00 0.0000000000000000e+00 0.0000000000000000e+00  0.0000000000000000e+00 0.0000000000000000e+00 0.0000000000000000e+00  0.0000000000000000e+00 0.0000000000000000e+00 0.0000000000000000e+00  0.0000000000000000e+00 0.0000000000000000e+00 0.0000000000000000e+00  0.0000000000000000e+00 0.0000000000000000e+00 0.0000000000000000e+00  0.0000000000000000e+00 0.0000000000000000e+00 0.0000000000000000e+00  0.0000000000000000e+00 0.0000000000000000e+00 0.0000000000000000e+00  0.0000000000000000e+00 0.0000000000000000e+00 0.0000000000000000e+00  0.0000000000000000e+00 0.0000000000000000e+00 0.0000000000000000e+00  0.0000000000000000e+00 0.0000000000000000e+00 0.0000000000000000e+00  0.0000000000000000e+00 0.0000000000000000e+00 0.0000000000000000e+00  0.0000000000000000e+00 0.0000000000000000e+00 0.0000000000000000e+00  0.0000000000000000e+00 0.0000000000000000e+00 0.0000000000000000e+00  0.0000000000000000e+00 0.0000000000000000e+00 0.0000000000000000e+00  0.0000000000000000e+00 0.0000000000000000e+00 0.0000000000000000e+00  0.0000000000000000e+00 0.0000000000000000e+00 0.0000000000000000e+00  -3.9722401191324742e-16 0.0000000000000000e+00 0.0000000000000000e+00  -4.7614230502068084e-16 0.0000000000000000e+00 0.0000000000000000e+00  -5.9309337042422733e-16 0.0000000000000000e+00 0.0000000000000000e+00  -5.8244294334590454e-16 0.0000000000000000e+00 0.0000000000000000e+00  -4.9870357007213832e-16 0.0000000000000000e+00 0.0000000000000000e+00  -4.6100694260604187e-16 0.0000000000000000e+00 0.0000000000000000e+00  -4.4206769201135419e-16 0.0000000000000000e+00 0.0000000000000000e+00  -4.4427244986301388e-16 0.0000000000000000e+00 0.0000000000000000e+00  -4.4367858394308692e-16 0.0000000000000000e+00 0.0000000000000000e+00  -4.7175644931797733e-16 0.0000000000000000e+00 0.0000000000000000e+00  -5.2173688534121719e-16 0.0000000000000000e+00 0.0000000000000000e+00  -4.2372278442798350e-16 0.0000000000000000e+00 0.0000000000000000e+00  -3.4592553197388016e-16 0.0000000000000000e+00 0.0000000000000000e+00  0.0000000000000000e+00 0.0000000000000000e+00 0.0000000000000000e+00  0.0000000000000000e+00 0.0000000000000000e+00 0.0000000000000000e+00  0.0000000000000000e+00 0.0000000000000000e+00 0.0000000000000000e+00  0.0000000000000000e+00 0.0000000000000000e+00 0.0000000000000000e+00  0.0000000000000000e+00 0.0000000000000000e+00 0.0000000000000000e+00  0.0000000000000000e+00 0.0000000000000000e+00 0.0000000000000000e+00  0.0000000000000000e+00 0.0000000000000000e+00 0.0000000000000000e+00  -3.7989511637186714e-16 0.0000000000000000e+00 0.0000000000000000e+00  -4.4135039293232624e-16 0.0000000000000000e+00 0.0000000000000000e+00  -5.3867237703192495e-16 0.0000000000000000e+00 0.0000000000000000e+00  -7.9716632691537446e-16 0.0000000000000000e+00 0.0000000000000000e+00  -7.4814074262641045e-16 0.0000000000000000e+00 0.0000000000000000e+00  -7.6033218026626094e-16 0.0000000000000000e+00 0.0000000000000000e+00  -7.8871582283504351e-16 0.0000000000000000e+00 0.0000000000000000e+00  -7.4170270815687314e-16 0.0000000000000000e+00 0.0000000000000000e+00  -6.7651153111547530e-16 0.0000000000000000e+00 0.0000000000000000e+00  -7.3045892862069932e-16 0.0000000000000000e+00 0.0000000000000000e+00  -8.7051393984981893e-16 0.0000000000000000e+00 0.0000000000000000e+00  -7.3269945315451913e-16 0.0000000000000000e+00 0.0000000000000000e+00  -6.4944633534198738e-16 0.0000000000000000e+00 0.0000000000000000e+00  -6.0189153241332689e-16 0.0000000000000000e+00 0.0000000000000000e+00  -5.0536981118886821e-16 0.0000000000000000e+00 0.0000000000000000e+00  0.0000000000000000e+00 0.0000000000000000e+00 0.0000000000000000e+00  0.0000000000000000e+00 0.0000000000000000e+00 0.0000000000000000e+00  0.0000000000000000e+00 0.0000000000000000e+00 0.0000000000000000e+00  0.0000000000000000e+00 0.0000000000000000e+00 0.0000000000000000e+00  0.0000000000000000e+00 0.0000000000000000e+00 0.0000000000000000e+00  0.0000000000000000e+00 3.1193193091045338e-16 0.0000000000000000e+00  -3.3308816425011335e-16 3.5222534029181415e-16 0.0000000000000000e+00  -5.6972478763289273e-16 0.0000000000000000e+00 0.0000000000000000e+00  -7.3218935285095681e-16 0.0000000000000000e+00 0.0000000000000000e+00  -9.6956037596185736e-16 0.0000000000000000e+00 0.0000000000000000e+00  -1.1294474718370753e-15 0.0000000000000000e+00 0.0000000000000000e+00  -1.1398671093667258e-15 0.0000000000000000e+00 0.0000000000000000e+00  -1.0938108550553421e-15 0.0000000000000000e+00 0.0000000000000000e+00  -1.0715549875325426e-15 0.0000000000000000e+00 0.0000000000000000e+00  -1.1019443544196211e-15 0.0000000000000000e+00 0.0000000000000000e+00  -1.1320990794135483e-15 0.0000000000000000e+00 0.0000000000000000e+00  -1.1218959539470944e-15 0.0000000000000000e+00 0.0000000000000000e+00  -8.0460305437771136e-16 0.0000000000000000e+00 0.0000000000000000e+00  -1.1135854840886127e-15 0.0000000000000000e+00 0.0000000000000000e+00  -9.4438076621365603e-16 0.0000000000000000e+00 0.0000000000000000e+00  -9.6989223130377769e-16 0.0000000000000000e+00 0.0000000000000000e+00  0.0000000000000000e+00 0.0000000000000000e+00 0.0000000000000000e+00  0.0000000000000000e+00 0.0000000000000000e+00 0.0000000000000000e+00  0.0000000000000000e+00 0.0000000000000000e+00 0.0000000000000000e+00  0.0000000000000000e+00 0.0000000000000000e+00 0.0000000000000000e+00  0.0000000000000000e+00 3.4807265301455427e-16 0.0000000000000000e+00  0.0000000000000000e+00 4.6251352829739436e-16 0.0000000000000000e+00  -3.5168115551309581e-16 5.7398673569095526e-16 0.0000000000000000e+00  -5.0540179490901965e-16 5.0856689663725178e-16 0.0000000000000000e+00  -7.8796212188128998e-16 3.9025254295633362e-16 0.0000000000000000e+00  -9.4753415862113767e-16 0.0000000000000000e+00 0.0000000000000000e+00  -1.0693077089448544e-15 0.0000000000000000e+00 0.0000000000000000e+00  -1.2025549161711720e-15 0.0000000000000000e+00 0.0000000000000000e+00  -1.2461801130421268e-15 0.0000000000000000e+00 0.0000000000000000e+00  -1.1650204282889805e-15 0.0000000000000000e+00 0.0000000000000000e+00  -1.3687876461677373e-15 0.0000000000000000e+00 0.0000000000000000e+00  -1.4227809539307794e-15 0.0000000000000000e+00 0.0000000000000000e+00  -1.3962808212961593e-15 0.0000000000000000e+00 0.0000000000000000e+00  -1.2519191614741676e-15 0.0000000000000000e+00 0.0000000000000000e+00  -1.3498703887121269e-15 0.0000000000000000e+00 0.0000000000000000e+00  -1.2352497923934045e-15 0.0000000000000000e+00 0.0000000000000000e+00  -1.1563219616131788e-15 0.0000000000000000e+00 0.0000000000000000e+00  0.0000000000000000e+00 0.0000000000000000e+00 0.0000000000000000e+00  0.0000000000000000e+00 0.0000000000000000e+00 0.0000000000000000e+00  0.0000000000000000e+00 0.0000000000000000e+00 0.0000000000000000e+00  0.0000000000000000e+00 0.0000000000000000e+00 0.0000000000000000e+00  0.0000000000000000e+00 3.9013826501809507e-16 0.0000000000000000e+00  0.0000000000000000e+00 6.5115715607411265e-16 0.0000000000000000e+00  0.0000000000000000e+00 8.1389402250641459e-16 0.0000000000000000e+00  -4.4232694541996597e-16 7.4845684901307240e-16 0.0000000000000000e+00  -4.2955242306607510e-16 5.3029188252361607e-16 0.0000000000000000e+00  -3.8591903085336615e-16 3.8647665265579567e-16 0.0000000000000000e+00  -5.4417564084339486e-16 0.0000000000000000e+00 0.0000000000000000e+00  -8.5550836851126482e-16 0.0000000000000000e+00 0.0000000000000000e+00  -1.0941837062781808e-15 0.0000000000000000e+00 0.0000000000000000e+00  -8.2808386340025746e-16 0.0000000000000000e+00 0.0000000000000000e+00  -1.0288817681909985e-15 0.0000000000000000e+00 0.0000000000000000e+00  -1.0055367399336524e-15 0.0000000000000000e+00 0.0000000000000000e+00  -1.0278824471600386e-15 0.0000000000000000e+00 0.0000000000000000e+00  -1.0803456425731510e-15 0.0000000000000000e+00 0.0000000000000000e+00  -1.2525636240616089e-15 0.0000000000000000e+00 0.0000000000000000e+00  -1.3485245730018574e-15 0.0000000000000000e+00 0.0000000000000000e+00  -1.4604908478476256e-15 0.0000000000000000e+00 0.0000000000000000e+00  0.0000000000000000e+00 0.0000000000000000e+00 0.0000000000000000e+00  0.0000000000000000e+00 0.0000000000000000e+00 0.0000000000000000e+00  0.0000000000000000e+00 0.0000000000000000e+00 0.0000000000000000e+00  0.0000000000000000e+00 0.0000000000000000e+00 0.0000000000000000e+00  0.0000000000000000e+00 4.3191902554626562e-16 0.0000000000000000e+00  -5.4855110632855497e-16 6.9026843764907347e-16 0.0000000000000000e+00  -3.8584869540454837e-16 8.3054731624323783e-16 0.0000000000000000e+00  0.0000000000000000e+00 8.3169419995807219e-16 0.0000000000000000e+00  0.0000000000000000e+00 6.3771608431210417e-16 0.0000000000000000e+00  0.0000000000000000e+00 4.6070211295988312e-16 0.0000000000000000e+00  0.0000000000000000e+00 3.7606707211326326e-16 0.0000000000000000e+00  0.0000000000000000e+00 0.0000000000000000e+00 0.0000000000000000e+00  0.0000000000000000e+00 0.0000000000000000e+00 0.0000000000000000e+00  -5.3973197732732667e-16 0.0000000000000000e+00 0.0000000000000000e+00  -6.4120762770387967e-16 0.0000000000000000e+00 0.0000000000000000e+00  -4.8168245501697631e-16 0.0000000000000000e+00 0.0000000000000000e+00  -6.9462782371298182e-16 0.0000000000000000e+00 0.0000000000000000e+00  -8.3444643506614986e-16 0.0000000000000000e+00 0.0000000000000000e+00  -6.9309395790193406e-16 0.0000000000000000e+00 0.0000000000000000e+00  -7.8396201462154877e-16 0.0000000000000000e+00 0.0000000000000000e+00  -7.4279293199293160e-16 0.0000000000000000e+00 0.0000000000000000e+00  0.0000000000000000e+00 0.0000000000000000e+00 0.0000000000000000e+00  0.0000000000000000e+00 0.0000000000000000e+00 0.0000000000000000e+00  -3.8147436462637878e-16 0.0000000000000000e+00 0.0000000000000000e+00  -5.3112249656888034e-16 3.0809632588207526e-16 0.0000000000000000e+00  -5.5201435704698556e-16 4.7642340863264140e-16 0.0000000000000000e+00  -7.4022486212816513e-16 5.5427469158325032e-16 0.0000000000000000e+00  0.0000000000000000e+00 5.7753453787576621e-16 0.0000000000000000e+00  0.0000000000000000e+00 6.0461534295778890e-16 0.0000000000000000e+00  4.5944960551545658e-16 6.2819782357953498e-16 0.0000000000000000e+00  4.9585828866370606e-16 5.3320031513876330e-16 0.0000000000000000e+00  4.8658815060764834e-16 4.5092938898110235e-16 0.0000000000000000e+00  5.4766132613226090e-16 3.5812327195314229e-16 0.0000000000000000e+00  0.0000000000000000e+00 0.0000000000000000e+00 0.0000000000000000e+00  0.0000000000000000e+00 0.0000000000000000e+00 0.0000000000000000e+00  0.0000000000000000e+00 0.0000000000000000e+00 0.0000000000000000e+00  0.0000000000000000e+00 0.0000000000000000e+00 0.0000000000000000e+00  4.9558405772424221e-16 0.0000000000000000e+00 0.0000000000000000e+00  6.2615649305298592e-16 0.0000000000000000e+00 0.0000000000000000e+00  7.8745796155752702e-16 0.0000000000000000e+00 0.0000000000000000e+00  1.1496649091327706e-15 -3.0260316288356098e-16 0.0000000000000000e+00  1.2101591567884434e-15 -4.1223636008002159e-16 0.0000000000000000e+00  0.0000000000000000e+00 0.0000000000000000e+00 0.0000000000000000e+00  0.0000000000000000e+00 3.6930261727625166e-16 0.0000000000000000e+00  0.0000000000000000e+00 3.1844270710088062e-16 0.0000000000000000e+00  -6.8390192837685920e-16 3.7331650821813327e-16 0.0000000000000000e+00  -3.1147064701298966e-16 5.0924613386244477e-16 0.0000000000000000e+00  0.0000000000000000e+00 3.5007136871599998e-16 0.0000000000000000e+00  0.0000000000000000e+00 3.2837539278135638e-16 0.0000000000000000e+00  3.3034904075689198e-16 3.6436404469503286e-16 0.0000000000000000e+00  5.9868407392317366e-16 5.4485214448187939e-16 0.0000000000000000e+00  5.0712056276299680e-16 5.9807134733452886e-16 0.0000000000000000e+00  3.2820628909195798e-16 5.1547607307187176e-16 0.0000000000000000e+00  3.2489246297059141e-16 4.9723581907008104e-16 0.0000000000000000e+00  4.2242520488293834e-16 3.3219415549606071e-16 0.0000000000000000e+00  0.0000000000000000e+00 0.0000000000000000e+00 0.0000000000000000e+00  7.4273777160007332e-16 0.0000000000000000e+00 0.0000000000000000e+00  7.1135047820602797e-16 -3.9858817608815253e-16 0.0000000000000000e+00  1.2373666789160054e-15 -5.1972125383912971e-16 0.0000000000000000e+00  1.6323738243565566e-15 -5.2607042090179750e-16 0.0000000000000000e+00  1.9799641130170289e-15 -6.3627138769876704e-16 0.0000000000000000e+00  2.3884171150962249e-15 -8.1115721112899718e-16 0.0000000000000000e+00  2.5876091918279331e-15 -8.2364006442533652e-16 0.0000000000000000e+00  0.0000000000000000e+00 0.0000000000000000e+00 0.0000000000000000e+00  0.0000000000000000e+00 4.1331845498462358e-16 0.0000000000000000e+00  0.0000000000000000e+00 5.8926996455532948e-16 0.0000000000000000e+00  0.0000000000000000e+00 3.1859215032710554e-16 0.0000000000000000e+00  0.0000000000000000e+00 3.0633830260009730e-16 0.0000000000000000e+00  0.0000000000000000e+00 0.0000000000000000e+00 0.0000000000000000e+00  6.5596156666385835e-16 0.0000000000000000e+00 0.0000000000000000e+00  7.6389144093338438e-16 3.2338923885503915e-16 0.0000000000000000e+00  7.6925209097974517e-16 5.6556263542139370e-16 0.0000000000000000e+00  7.2537874790418461e-16 6.9139265304004894e-16 0.0000000000000000e+00  1.2096050482218241e-15 6.3963473450025517e-16 0.0000000000000000e+00  8.8079484856232859e-16 4.6220462496638195e-16 0.0000000000000000e+00  1.0836234089503959e-15 0.0000000000000000e+00 0.0000000000000000e+00  1.1091678984204234e-15 0.0000000000000000e+00 0.0000000000000000e+00  1.1844721803702188e-15 0.0000000000000000e+00 0.0000000000000000e+00  8.3472227579615577e-16 -6.2544997068575140e-16 0.0000000000000000e+00  1.4003893143873318e-15 -9.3805969726628670e-16 0.0000000000000000e+00  1.8791000305978490e-15 -9.5034596714810462e-16 0.0000000000000000e+00  1.8367426461837523e-15 -9.5214238667155316e-16 0.0000000000000000e+00  2.2542089941224654e-15 -1.0178372022888873e-15 0.0000000000000000e+00  2.3598929284689042e-15 -9.7906562875745429e-16 0.0000000000000000e+00  0.0000000000000000e+00 0.0000000000000000e+00 0.0000000000000000e+00  0.0000000000000000e+00 3.7260550715745956e-16 0.0000000000000000e+00  0.0000000000000000e+00 5.8138845095807901e-16 0.0000000000000000e+00  3.6455278989288035e-16 3.8602172167794407e-16 0.0000000000000000e+00  0.0000000000000000e+00 0.0000000000000000e+00 0.0000000000000000e+00  4.1819319613016435e-16 0.0000000000000000e+00 0.0000000000000000e+00  5.7417734613001591e-16 0.0000000000000000e+00 0.0000000000000000e+00  8.1592427123964312e-16 0.0000000000000000e+00 0.0000000000000000e+00  8.8688823858531466e-16 4.9193142168293587e-16 0.0000000000000000e+00  1.2498133638463472e-15 5.7905676994942877e-16 0.0000000000000000e+00  1.3315665626256909e-15 5.1295331892778211e-16 0.0000000000000000e+00  1.6533292649604176e-15 4.5243907946107082e-16 0.0000000000000000e+00  1.6941963145019624e-15 3.9274730172783333e-16 0.0000000000000000e+00  1.2594071571335025e-15 0.0000000000000000e+00 0.0000000000000000e+00  1.6542696571176699e-15 0.0000000000000000e+00 0.0000000000000000e+00  1.9636693115264127e-15 -7.1278515095063042e-16 0.0000000000000000e+00  1.5471970607813966e-15 -1.0923633125087193e-15 0.0000000000000000e+00  1.5511541697105695e-15 -1.1688177824397503e-15 0.0000000000000000e+00  1.7504515174321704e-15 -1.0178389323587114e-15 0.0000000000000000e+00  1.6842405674314395e-15 -7.7000693123712345e-16 0.0000000000000000e+00  1.3133228287534038e-15 -6.8893091384366852e-16 0.0000000000000000e+00  0.0000000000000000e+00 0.0000000000000000e+00 0.0000000000000000e+00  0.0000000000000000e+00 0.0000000000000000e+00 0.0000000000000000e+00  0.0000000000000000e+00 4.5741617773073545e-16 0.0000000000000000e+00  0.0000000000000000e+00 4.3648096239652504e-16 0.0000000000000000e+00  0.0000000000000000e+00 0.0000000000000000e+00 0.0000000000000000e+00  3.0513396449832703e-16 -3.0954575484673586e-16 0.0000000000000000e+00  0.0000000000000000e+00 0.0000000000000000e+00 0.0000000000000000e+00  3.6555736239561018e-16 0.0000000000000000e+00 0.0000000000000000e+00  0.0000000000000000e+00 0.0000000000000000e+00 0.0000000000000000e+00  9.5235693115131500e-16 3.3061191128898853e-16 0.0000000000000000e+00  1.1836329925347565e-15 3.1425907970228954e-16 0.0000000000000000e+00  1.1457046986235931e-15 3.9285116693919573e-16 0.0000000000000000e+00  1.3753423203295618e-15 4.6362838649429750e-16 0.0000000000000000e+00  1.0397540622161444e-15 0.0000000000000000e+00 0.0000000000000000e+00  1.7610219151808961e-15 -4.4491597563174444e-16 0.0000000000000000e+00  2.0802366928969148e-15 -8.1156715793917367e-16 0.0000000000000000e+00  1.8829287745848957e-15 -8.9880031801071750e-16 0.0000000000000000e+00  1.3401122672146783e-15 -1.0244633149370218e-15 0.0000000000000000e+00  1.3631476192675769e-15 -7.9389124423506578e-16 0.0000000000000000e+00  9.2252427859330705e-16 -4.9875407294127097e-16 0.0000000000000000e+00  6.7535339732628504e-16 -4.5982928982700759e-16 0.0000000000000000e+00  0.0000000000000000e+00 0.0000000000000000e+00 0.0000000000000000e+00  -3.3702610601451944e-16 0.0000000000000000e+00 0.0000000000000000e+00  0.0000000000000000e+00 4.2330492280807478e-16 0.0000000000000000e+00  0.0000000000000000e+00 3.9424350429579011e-16 0.0000000000000000e+00  0.0000000000000000e+00 0.0000000000000000e+00 0.0000000000000000e+00  0.0000000000000000e+00 0.0000000000000000e+00 0.0000000000000000e+00  0.0000000000000000e+00 0.0000000000000000e+00 0.0000000000000000e+00  -3.0631416292901636e-16 -4.0613719849738646e-16 0.0000000000000000e+00  0.0000000000000000e+00 -3.2054569513722535e-16 0.0000000000000000e+00  4.1195743317508454e-16 0.00000000000