<?xml version="1.0"?>
<VTKFile type="UnstructuredGrid"  version="0.1"  >
<UnstructuredGrid>
<Piece  NumberOfPoints="441" NumberOfCells="800">
<Points>
<DataArray  type="Float64"  NumberOfComponents="3"  format="ascii">0 0 0  0.05 0 0  0.1 0 0  0.15 0 0  0.2 0 0  0.25 0 0  0.3 0 0  0.35 0 0  0.4 0 0  0.45 0 0  0.5 0 0  0.55 0 0  0.6 0 0  0.65 0 0  0.7 0 0  0.75 0 0  0.8 0 0  0.85 0 0  0.9 0 0  0.95 0 0  1 0 0  0 0.05 0  0.05 0.05 0  0.1 0.05 0  0.15 0.05 0  0.2 0.05 0  0.25 0.05 0  0.3 0.05 0  0.35 0.05 0  0.4 0.05 0  0.45 0.05 0  0.5 0.05 0  0.55 0.05 0  0.6 0.05 0  0.65 0.05 0  0.7 0.05 0  0.75 0.05 0  0.8 0.05 0  0.85 0.05 0  0.9 0.05 0  0.95 0.05 0  1 0.05 0  0 0.1 0  0.05 0.1 0  0.1 0.1 0  0.15 0.1 0  0.2 0.1 0  0.25 0.1 0  0.3 0.1 0  0.35 0.1 0  0.4 0.1 0  0.45 0.1 0  0.5 0.1 0  0.55 0.1 0  0.6 0.1 0  0.65 0.1 0  0.7 0.1 0  0.75 0.1 0  0.8 0.1 0  0.85 0.1 0  0.9 0.1 0  0.95 0.1 0  1 0.1 0  0 0.15 0  0.05 0.15 0  0.1 0.15 0  0.15 0.15 0  0.2 0.15 0  0.25 0.15 0  0.3 0.15 0  0.35 0.15 0  0.4 0.15 0  0.45 0.15 0  0.5 0.15 0  0.55 0.15 0  0.6 0.15 0  0.65 0.15 0  0.7 0.15 0  0.75 0.15 0  0.8 0.15 0  0.85 0.15 0  0.9 0.15 0  0.95 0.15 0  1 0.15 0  0 0.2 0  0.05 0.2 0  0.1 0.2 0  0.15 0.2 0  0.2 0.2 0  0.25 0.2 0  0.3 0.2 0  0.35 0.2 0  0.4 0.2 0  0.45 0.2 0  0.5 0.2 0  0.55 0.2 0  0.6 0.2 0  0.65 0.2 0  0.7 0.2 0  0.75 0.2 0  0.8 0.2 0  0.85 0.2 0  0.9 0.2 0  0.95 0.2 0  1 0.2 0  0 0.25 0  0.05 0.25 0  0.1 0.25 0  0.15 0.25 0  0.2 0.25 0  0.25 0.25 0  0.3 0.25 0  0.35 0.25 0  0.4 0.25 0  0.45 0.25 0  0.5 0.25 0  0.55 0.25 0  0.6 0.25 0  0.65 0.25 0  0.7 0.25 0  0.75 0.25 0  0.8 0.25 0  0.85 0.25 0  0.9 0.25 0  0.95 0.25 0  1 0.25 0  0 0.3 0  0.05 0.3 0  0.1 0.3 0  0.15 0.3 0  0.2 0.3 0  0.25 0.3 0  0.3 0.3 0  0.35 0.3 0  0.4 0.3 0  0.45 0.3 0  0.5 0.3 0  0.55 0.3 0  0.6 0.3 0  0.65 0.3 0  0.7 0.3 0  0.75 0.3 0  0.8 0.3 0  0.85 0.3 0  0.9 0.3 0  0.95 0.3 0  1 0.3 0  0 0.35 0  0.05 0.35 0  0.1 0.35 0  0.15 0.35 0  0.2 0.35 0  0.25 0.35 0  0.3 0.35 0  0.35 0.35 0  0.4 0.35 0  0.45 0.35 0  0.5 0.35 0  0.55 0.35 0  0.6 0.35 0  0.65 0.35 0  0.7 0.35 0  0.75 0.35 0  0.8 0.35 0  0.85 0.35 0  0.9 0.35 0  0.95 0.35 0  1 0.35 0  0 0.4 0  0.05 0.4 0  0.1 0.4 0  0.15 0.4 0  0.2 0.4 0  0.25 0.4 0  0.3 0.4 0  0.35 0.4 0  0.4 0.4 0  0.45 0.4 0  0.5 0.4 0  0.55 0.4 0  0.6 0.4 0  0.65 0.4 0  0.7 0.4 0  0.75 0.4 0  0.8 0.4 0  0.85 0.4 0  0.9 0.4 0  0.95 0.4 0  1 0.4 0  0 0.45 0  0.05 0.45 0  0.1 0.45 0  0.15 0.45 0  0.2 0.45 0  0.25 0.45 0  0.3 0.45 0  0.35 0.45 0  0.4 0.45 0  0.45 0.45 0  0.5 0.45 0  0.55 0.45 0  0.6 0.45 0  0.65 0.45 0  0.7 0.45 0  0.75 0.45 0  0.8 0.45 0  0.85 0.45 0  0.9 0.45 0  0.95 0.45 0  1 0.45 0  0 0.5 0  0.05 0.5 0  0.1 0.5 0  0.15 0.5 0  0.2 0.5 0  0.25 0.5 0  0.3 0.5 0  0.35 0.5 0  0.4 0.5 0  0.45 0.5 0  0.5 0.5 0  0.55 0.5 0  0.6 0.5 0  0.65 0.5 0  0.7 0.5 0  0.75 0.5 0  0.8 0.5 0  0.85 0.5 0  0.9 0.5 0  0.95 0.5 0  1 0.5 0  0 0.55 0  0.05 0.55 0  0.1 0.55 0  0.15 0.55 0  0.2 0.55 0  0.25 0.55 0  0.3 0.55 0  0.35 0.55 0  0.4 0.55 0  0.45 0.55 0  0.5 0.55 0  0.55 0.55 0  0.6 0.55 0  0.65 0.55 0  0.7 0.55 0  0.75 0.55 0  0.8 0.55 0  0.85 0.55 0  0.9 0.55 0  0.95 0.55 0  1 0.55 0  0 0.6 0  0.05 0.6 0  0.1 0.6 0  0.15 0.6 0  0.2 0.6 0  0.25 0.6 0  0.3 0.6 0  0.35 0.6 0  0.4 0.6 0  0.45 0.6 0  0.5 0.6 0  0.55 0.6 0  0.6 0.6 0  0.65 0.6 0  0.7 0.6 0  0.75 0.6 0  0.8 0.6 0  0.85 0.6 0  0.9 0.6 0  0.95 0.6 0  1 0.6 0  0 0.65 0  0.05 0.65 0  0.1 0.65 0  0.15 0.65 0  0.2 0.65 0  0.25 0.65 0  0.3 0.65 0  0.35 0.65 0  0.4 0.65 0  0.45 0.65 0  0.5 0.65 0  0.55 0.65 0  0.6 0.65 0  0.65 0.65 0  0.7 0.65 0  0.75 0.65 0  0.8 0.65 0  0.85 0.65 0  0.9 0.65 0  0.95 0.65 0  1 0.65 0  0 0.7 0  0.05 0.7 0  0.1 0.7 0  0.15 0.7 0  0.2 0.7 0  0.25 0.7 0  0.3 0.7 0  0.35 0.7 0  0.4 0.7 0  0.45 0.7 0  0.5 0.7 0  0.55 0.7 0  0.6 0.7 0  0.65 0.7 0  0.7 0.7 0  0.75 0.7 0  0.8 0.7 0  0.85 0.7 0  0.9 0.7 0  0.95 0.7 0  1 0.7 0  0 0.75 0  0.05 0.75 0  0.1 0.75 0  0.15 0.75 0  0.2 0.75 0  0.25 0.75 0  0.3 0.75 0  0.35 0.75 0  0.4 0.75 0  0.45 0.75 0  0.5 0.75 0  0.55 0.75 0  0.6 0.75 0  0.65 0.75 0  0.7 0.75 0  0.75 0.75 0  0.8 0.75 0  0.85 0.75 0  0.9 0.75 0  0.95 0.75 0  1 0.75 0  0 0.8 0  0.05 0.8 0  0.1 0.8 0  0.15 0.8 0  0.2 0.8 0  0.25 0.8 0  0.3 0.8 0  0.35 0.8 0  0.4 0.8 0  0.45 0.8 0  0.5 0.8 0  0.55 0.8 0  0.6 0.8 0  0.65 0.8 0  0.7 0.8 0  0.75 0.8 0  0.8 0.8 0  0.85 0.8 0  0.9 0.8 0  0.95 0.8 0  1 0.8 0  0 0.85 0  0.05 0.85 0  0.1 0.85 0  0.15 0.85 0  0.2 0.85 0  0.25 0.85 0  0.3 0.85 0  0.35 0.85 0  0.4 0.85 0  0.45 0.85 0  0.5 0.85 0  0.55 0.85 0  0.6 0.85 0  0.65 0.85 0  0.7 0.85 0  0.75 0.85 0  0.8 0.85 0  0.85 0.85 0  0.9 0.85 0  0.95 0.85 0  1 0.85 0  0 0.9 0  0.05 0.9 0  0.1 0.9 0  0.15 0.9 0  0.2 0.9 0  0.25 0.9 0  0.3 0.9 0  0.35 0.9 0  0.4 0.9 0  0.45 0.9 0  0.5 0.9 0  0.55 0.9 0  0.6 0.9 0  0.65 0.9 0  0.7 0.9 0  0.75 0.9 0  0.8 0.9 0  0.85 0.9 0  0.9 0.9 0  0.95 0.9 0  1 0.9 0  0 0.95 0  0.05 0.95 0  0.1 0.95 0  0.15 0.95 0  0.2 0.95 0  0.25 0.95 0  0.3 0.95 0  0.35 0.95 0  0.4 0.95 0  0.45 0.95 0  0.5 0.95 0  0.55 0.95 0  0.6 0.95 0  0.65 0.95 0  0.7 0.95 0  0.75 0.95 0  0.8 0.95 0  0.85 0.95 0  0.9 0.95 0  0.95 0.95 0  1 0.95 0  0 1 0  0.05 1 0  0.1 1 0  0.15 1 0  0.2 1 0  0.25 1 0  0.3 1 0  0.35 1 0  0.4 1 0  0.45 1 0  0.5 1 0  0.55 1 0  0.6 1 0  0.65 1 0  0.7 1 0  0.75 1 0  0.8 1 0  0.85 1 0  0.9 1 0  0.95 1 0  1 1 0  </DataArray>
</Points>
<Cells>
[...]
<PointData  Scalars="u"> 
<DataArray  type="Float64"  Name="u"  format="ascii">4.7281936827930968e+00  1.6343246969146714e+00  -3.2122615915682395e-01  -1.3616715941162703e+00  -2.0922679281371912e+00  -2.5724770207902767e+00  -2.8039216605617647e+00  -2.8384553632353362e+00  -2.7249905383813906e+00  -2.5070176901864438e+00  -2.2212909196946784e+00  -1.8963392996869655e+00  -1.5517860586904331e+00  -1.1973469238836312e+00  -8.3174912948206792e-01  -4.3939349272104400e-01  8.1529174415247430e-03  5.3195633597416536e-01  1.1286023431572545e+00  1.3112446585970845e+00  4.4633894800908086e-01  4.7740661641783566e+00  2.4140543907237779e+00  -1.3263202455553150e-01  -1.2199975065641353e+00  -1.9801590396248567e+00  -2.4051873907211854e+00  -2.5901868541138739e+00  -2.6018984827111571e+00  -2.4891342155493641e+00  -2.2908825480544222e+00  -2.0372636830488240e+00  -1.7503153782991727e+00  -1.4446447320273870e+00  -1.1275416934806424e+00  -7.9876779283842214e-01  -4.5023592518052385e-01  -6.9199089652694792e-02  3.5061617349412849e-01  7.8584745614558937e-01  1.0097257172244836e+00  7.9750728694700690e-01  3.6469562054879523e+00  2.2163107655936414e+00  -2.9710029519422676e-01  -1.3300946658316308e+00  -1.9923195332510140e+00  -2.3204133998840359e+00  -2.4457679008322208e+00  -2.4263603192804815e+00  -2.3067626508480368e+00  -2.1193989387724281e+00  -1.8879236143242155e+00  -1.6291774198464775e+00  -1.3542719166098458e+00  -1.0690646570721418e+00  -7.7441309190638175e-01  -4.6623782563743882e-01  -1.3681624815767221e-01  2.1898907502216944e-01  6.0808814869420391e-01  8.9763827918835770e-01  9.5769075897171985e-01  2.6882377102001249e+00  1.6474766406938233e+00  -5.7490031875716807e-01  -1.4848205092372149e+00  -2.0285165567514385e+00  -2.2697075947704373e+00  -2.3394872023086064e+00  -2.2898037131983444e+00  -2.1614827969863115e+00  -1.9804036694770286e+00  -1.7650146103473716e+00  -1.5281752112311486e+00  -1.2783470155994530e+00  -1.0201564740993145e+00  -7.5460550466633880e-01  -4.7869607690517518e-01  -1.8532954534081628e-01  1.3482420938763084e-01  5.0025926125632436e-01  8.1249829347259916e-01  9.4889759095052606e-01  1.9620979888743004e+00  1.0423912493132863e+00  -8.5425358598393974e-01  -1.6372083261001713e+00  -2.0690777714126907e+00  -2.2348659076374351e+00  -2.2556558691289710e+00  -2.1801176518751255e+00  -2.0436404484676913e+00  -1.8666108050469994e+00  -1.6635192142833728e+00  -1.4441082997358623e+00  -1.2147421316214284e+00  -9.7888635464435658e-01  -7.3714095602712004e-01  -4.8653482826795602e-01  -2.1964596318260357e-01  7.4686530943468207e-02  4.1797990418185138e-01  7.2819483934100582e-01  8.9586209741011191e-01  1.3554959041773542e+00  5.2377487619524488e-01  -1.1036675039640609e+00  -1.7606874673185620e+00  -2.0947370965108556e+00  -2.1999180233269779e+00  -2.1824988266524876e+00  -2.0875098572961539e+00  -1.9449994508221951e+00  -1.7715395891921779e+00  -1.5785854692001271e+00  -1.3734963098457595e+00  -1.1610056226846637e+00  -9.4355232763747909e-01  -7.2120125133505553e-01  -4.9080055375206166e-01  -2.4492453164818606e-01  2.7739152902758163e-02  3.4787835888346824e-01  6.4498943503531103e-01  8.2054047132382713e-01  8.3201600853815016e-01  9.3879110513687580e-02  -1.3060876133745583e+00  -1.8475689132778712e+00  -2.1027765809997385e+00  -2.1607920760010546e+00  -2.1148439169288049e+00  -2.0061190274598655e+00  -1.8601245165555711e+00  -1.6905732335231884e+00  -1.5065233690288669e+00  -1.3135728192464633e+00  -1.1152091685103167e+00  -9.1304766993145448e-01  -7.0671493386425110e-01  -4.9301531715964636e-01  -2.6493521049802993e-01  -1.1966590890667268e-02  2.8442701373017970e-01  5.6317434444728842e-01  7.3723275108104613e-01  3.7460786584333233e-01  -2.6798613456785325e-01  -1.4624623598156303e+00  -1.9032713328468633e+00  -2.0946670395272853e+00  -2.1159711598322639e+00  -2.0496527883904450e+00  -1.9322032677292098e+00  -1.7852620173473568e+00  -1.6202646821776683e+00  -1.4444419200293392e+00  -1.2621063513671833e+00  -1.0758166415667549e+00  -8.8659106185623138e-01  -6.9378761680846712e-01  -4.9435014576675296e-01  -2.8195271925143667e-01  -4.7288228459530443e-02  2.2566468014780727e-01  4.8423549110866460e-01  6.5268887306597512e-01  -2.9665803581145383e-02  -5.7584755368924090e-01  -1.5814740451340381e+00  -1.9346815896868146e+00  -2.0733158614481826e+00  -2.0664186656184547e+00  -1.9861088496032371e+00  -1.8638459669566829e+00  -1.7180412612920208e+00  -1.5582337022408883e+00  -1.3902440371605820e+00  -1.2174291834868072e+00  -1.0416780701053752e+00  -8.6361425759857469e-01  -6.8248610289460132e-01  -4.9551968569575783e-01  -2.9721198594772946e-01  -7.9576893756069675e-02  1.7090113535680937e-01  4.0920459167187839e-01  5.7041253561213678e-01  -3.8882770837320296e-01  -8.4016425064229050e-01  -1.6720222369889157e+00  -1.9480741561365911e+00  -2.0425103529687552e+00  -2.0139382984340828e+00  -1.9242526118714933e+00  -1.8000901486469960e+00  -1.6570060722553026e+00  -1.5028877428854532e+00  -1.3424453617683252e+00  -1.1783189660733968e+00  -1.0119287541125850e+00  -8.4366094004731373e-01  -6.7277652561466172e-01  -4.9687229658170529e-01  -3.1131048800538669e-01  -1.0941485171387798e-01  1.1997053203516320e-01  3.3882956864620606e-01  4.9239056589931468e-01  -7.0820030263060962e-01  -1.0685532792754120e+00  -1.7411067475065214e+00  -1.9488161395289922e+00  -2.0058199614346361e+00  -1.9603989114169933e+00  -1.8646418868584997e+00  -1.7406532755544573e+00  -1.6013632079850397e+00  -1.4532212797508013e+00  -1.3000390678708496e+00  -1.1439084573004579e+00  -9.8592572619001240e-01  -8.2635301463886401e-01  -6.6454694480412679e-01  -4.9851828342238524e-01  -3.2448187324747324e-01  -1.3700171379315981e-01  7.2912010703019239e-02  2.7362714844244135e-01  4.1974622314966764e-01  -9.9139768102874493e-01  -1.2663792157934255e+00  -1.7940539049974835e+00  -1.9412180098433811e+00  -1.9662383108835675e+00  -1.9075590620746952e+00  -1.8080533005256549e+00  -1.6856017762214286e+00  -1.5507320168323322e+00  -1.4086341582836879e+00  -1.2623670974807202e+00  -1.1135956068656716e+00  -9.6319345209936669e-01  -8.1137538099568607e-01  -6.5764308103992830e-01  -5.0043189821922907e-01  -3.3676505182615341e-01  -1.6235146626487218e-01  2.9840957137677218e-02  2.1395766597237420e-01  3.5314241323581286e-01  -1.2408898748544990e+00  -1.4374306958616927e+00  -1.8348009685029703e+00  -1.9285800403037421e+00  -1.9261753050716790e+00  -1.8569568005585684e+00  -1.7552883751110813e+00  -1.6351851739176690e+00  -1.5049972678449839e+00  -1.3688024978678024e+00  -1.2290190705218695e+00  -1.0869733759112632e+00  -9.4338535320507599e-01  -7.9847069022364237e-01  -6.5190008234950769e-01  -5.0252155230661955e-01  -3.4810400633884708e-01  -1.8539452462239869e-01  -9.1068899571156801e-03  1.6007907509916358e-01  2.9298114742556258e-01  -1.4583861478853892e+00  -1.5843794885727782e+00  -1.8662127805389270e+00  -1.9133862906765697e+00  -1.8875239955035974e+00  -1.8098722702372001e+00  -1.7070921313142089e+00  -1.5897326791328132e+00  -1.4641947691449828e+00  -1.3335782831345255e+00  -1.1997538035276836e+00  -1.0637747729708757e+00  -9.2625345194712372e-01  -7.8743443370110644e-01  -6.4716303909393302e-01  -5.0467275369434728e-01  -3.5840425022420397e-01  -2.0603053499762003e-01  -4.3799208910492556e-02  1.1218199882431444e-01  2.3951734444447154e-01  -1.6450758412294719e+00  -1.7091097977171972e+00  -1.8903593420875011e+00  -1.8974828638805015e+00  -1.8517413110655241e+00  -1.7673395088243542e+00  -1.6641169349754275e+00  -1.5495871766086988e+00  -1.4284381549694520e+00  -1.3029218081497018e+00  -1.1744424157920148e+00  -1.0438313181903378e+00  -9.1162447419498405e-01  -7.7810904609749110e-01  -6.4329782493338805e-01  -5.0677210572293074e-01  -3.6756323634432347e-01  -2.2415502239342877e-01  -7.4117002251977177e-02  7.0411744788209357e-02  1.9292156735560109e-01  -1.8017933133980815e+00  -1.8129484459581002e+00  -1.9087268690230788e+00  -1.8822278079230033e+00  -1.8199325263163899e+00  -1.7301755277469948e+00  -1.6269100726569525e+00  -1.5150690822734938e+00  -1.3978728193878847e+00  -1.2768544286817680e+00  -1.1530270267869893e+00  -1.0270420410457843e+00  -8.9938076189818950e-01  -7.7037693422845510e-01  -6.4019494131725385e-01  -5.0871914981148714e-01  -3.7548597444056253e-01  -2.3967271662597342e-01  -9.9958386685866721e-02  3.4881627288735714e-02  1.5331464306482781e-01  -1.9291047964973533e+00  -1.8968261207681520e+00  -1.9223751064455477e+00  -1.8686088104395546e+00  -1.7929237109578262e+00  -1.6990116976377156e+00  -1.5959145567728101e+00  -1.4864576299515497e+00  -1.3726468862030199e+00  -1.2554268936453818e+00  -1.1354919255380285e+00  -1.0133505581898345e+00  -8.8944488067287042e-01  -7.6415291905616589e-01  -6.3776887968687901e-01  -5.1043093384250593e-01  -3.8209139228880962e-01  -2.5250140063227577e-01  -1.2123797965534179e-01  5.6809141939836291e-03  1.2078614840136889e-01  -2.0274271457794377e+00  -1.9613993179242379e+00  -1.9320410931637229e+00  -1.8573348547963764e+00  -1.7713206512957040e+00  -1.6743243485651880e+00  -1.5714769580697507e+00  -1.4639833145273276e+00  -1.3528948022658231e+00  -1.2386996477518373e+00  -1.1218444333085393e+00  -1.0027291146909338e+00  -8.8176829195580220e-01  -7.5937789012417178e-01  -6.3595641849178364e-01  -5.1184342186984355e-01  -3.8731473330129917e-01  -2.6257723236970670e-01  -1.3789331306169308e-01  -1.7123139174313611e-02  9.5404443503253583e-02  -2.0971701442230573e+00  -2.0070122253593783e+00  -1.9382542631102775e+00  -1.8488985689260815e+00  -1.7555536373023066e+00  -1.6564560773747372e+00  -1.5538536360268180e+00  -1.4478218019579523e+00  -1.3387247430745410e+00  -1.2267270705320474e+00  -1.1120990310706267e+00  -9.9516447571877198e-01  -8.7632002924245789e-01  -7.5601049604264070e-01  -6.3471086492741458e-01  -5.1290693350925431e-01  -3.9110519948326061e-01  -2.6985009927896753e-01  -1.4986216263230556e-01  -3.3462610620087437e-02  7.7222233761917933e-02  -2.1368592555364199e+00  -2.0342170717266699e+00  -1.9412937716130532e+00  -1.8436417564414747e+00  -1.7458985323239258e+00  -1.6456509752501758e+00  -1.5432255274564866e+00  -1.4381065314732804e+00  -1.3302240024295715e+00  -1.2195602797383842e+00  -1.1062784488393083e+00  -9.9065900966410048e-01  -8.7308867895146258e-01  -7.5403082431170454e-01  -6.3400783308427799e-01  -5.1359481536001872e-01  -3.9343759599289502e-01  -2.7429183495164328e-01  -1.5712413469616401e-01  -4.3368380033467595e-02  6.6256085008969595e-02  -2.1541979598486813e+00  -2.0427846109912116e+00  -1.9416833563779270e+00  -1.8416523642210101e+00  -1.7426083199855698e+00  -1.6419970412904494e+00  -1.5396889171855241e+00  -1.4348818953429467e+00  -1.3274165457241336e+00  -1.2172007291355187e+00  -1.1043700797823623e+00  -9.8918978609099251e-01  -8.7204481824119406e-01  -7.5340527767952792e-01  -6.3381054333185405e-01  -5.1386663360025608e-01  -3.9426786187511914e-01  -2.7584597839612762e-01  -1.5963316682460957e-01  -4.6702078208161781e-02  6.2728871622296428e-02  </DataArray> 
</PointData> 
</Piece>
</UnstructuredGrid>
</VTKFile>