<?xml version="1.0"?>
<VTKFile type="UnstructuredGrid"  version="0.1"  >
<UnstructuredGrid>
<Piece  NumberOfPoints="441" NumberOfCells="800">
<Points>
<DataArray  type="Float64"  NumberOfComponents="3"  format="ascii">0 0 0  0.05 0 0  0.1 0 0  0.15 0 0  0.2 0 0  0.25 0 0  0.3 0 0  0.35 0 0  0.4 0 0  0.45 0 0  0.5 0 0  0.55 0 0  0.6 0 0  0.65 0 0  0.7 0 0  0.75 0 0  0.8 0 0  0.85 0 0  0.9 0 0  0.95 0 0  1 0 0  0 0.05 0  0.05 0.05 0  0.1 0.05 0  0.15 0.05 0  0.2 0.05 0  0.25 0.05 0  0.3 0.05 0  0.35 0.05 0  0.4 0.05 0  0.45 0.05 0  0.5 0.05 0  0.55 0.05 0  0.6 0.05 0  0.65 0.05 0  0.7 0.05 0  0.75 0.05 0  0.8 0.05 0  0.85 0.05 0  0.9 0.05 0  0.95 0.05 0  1 0.05 0  0 0.1 0  0.05 0.1 0  0.1 0.1 0  0.15 0.1 0  0.2 0.1 0  0.25 0.1 0  0.3 0.1 0  0.35 0.1 0  0.4 0.1 0  0.45 0.1 0  0.5 0.1 0  0.55 0.1 0  0.6 0.1 0  0.65 0.1 0  0.7 0.1 0  0.75 0.1 0  0.8 0.1 0  0.85 0.1 0  0.9 0.1 0  0.95 0.1 0  1 0.1 0  0 0.15 0  0.05 0.15 0  0.1 0.15 0  0.15 0.15 0  0.2 0.15 0  0.25 0.15 0  0.3 0.15 0  0.35 0.15 0  0.4 0.15 0  0.45 0.15 0  0.5 0.15 0  0.55 0.15 0  0.6 0.15 0  0.65 0.15 0  0.7 0.15 0  0.75 0.15 0  0.8 0.15 0  0.85 0.15 0  0.9 0.15 0  0.95 0.15 0  1 0.15 0  0 0.2 0  0.05 0.2 0  0.1 0.2 0  0.15 0.2 0  0.2 0.2 0  0.25 0.2 0  0.3 0.2 0  0.35 0.2 0  0.4 0.2 0  0.45 0.2 0  0.5 0.2 0  0.55 0.2 0  0.6 0.2 0  0.65 0.2 0  0.7 0.2 0  0.75 0.2 0  0.8 0.2 0  0.85 0.2 0  0.9 0.2 0  0.95 0.2 0  1 0.2 0  0 0.25 0  0.05 0.25 0  0.1 0.25 0  0.15 0.25 0  0.2 0.25 0  0.25 0.25 0  0.3 0.25 0  0.35 0.25 0  0.4 0.25 0  0.45 0.25 0  0.5 0.25 0  0.55 0.25 0  0.6 0.25 0  0.65 0.25 0  0.7 0.25 0  0.75 0.25 0  0.8 0.25 0  0.85 0.25 0  0.9 0.25 0  0.95 0.25 0  1 0.25 0  0 0.3 0  0.05 0.3 0  0.1 0.3 0  0.15 0.3 0  0.2 0.3 0  0.25 0.3 0  0.3 0.3 0  0.35 0.3 0  0.4 0.3 0  0.45 0.3 0  0.5 0.3 0  0.55 0.3 0  0.6 0.3 0  0.65 0.3 0  0.7 0.3 0  0.75 0.3 0  0.8 0.3 0  0.85 0.3 0  0.9 0.3 0  0.95 0.3 0  1 0.3 0  0 0.35 0  0.05 0.35 0  0.1 0.35 0  0.15 0.35 0  0.2 0.35 0  0.25 0.35 0  0.3 0.35 0  0.35 0.35 0  0.4 0.35 0  0.45 0.35 0  0.5 0.35 0  0.55 0.35 0  0.6 0.35 0  0.65 0.35 0  0.7 0.35 0  0.75 0.35 0  0.8 0.35 0  0.85 0.35 0  0.9 0.35 0  0.95 0.35 0  1 0.35 0  0 0.4 0  0.05 0.4 0  0.1 0.4 0  0.15 0.4 0  0.2 0.4 0  0.25 0.4 0  0.3 0.4 0  0.35 0.4 0  0.4 0.4 0  0.45 0.4 0  0.5 0.4 0  0.55 0.4 0  0.6 0.4 0  0.65 0.4 0  0.7 0.4 0  0.75 0.4 0  0.8 0.4 0  0.85 0.4 0  0.9 0.4 0  0.95 0.4 0  1 0.4 0  0 0.45 0  0.05 0.45 0  0.1 0.45 0  0.15 0.45 0  0.2 0.45 0  0.25 0.45 0  0.3 0.45 0  0.35 0.45 0  0.4 0.45 0  0.45 0.45 0  0.5 0.45 0  0.55 0.45 0  0.6 0.45 0  0.65 0.45 0  0.7 0.45 0  0.75 0.45 0  0.8 0.45 0  0.85 0.45 0  0.9 0.45 0  0.95 0.45 0  1 0.45 0  0 0.5 0  0.05 0.5 0  0.1 0.5 0  0.15 0.5 0  0.2 0.5 0  0.25 0.5 0  0.3 0.5 0  0.35 0.5 0  0.4 0.5 0  0.45 0.5 0  0.5 0.5 0  0.55 0.5 0  0.6 0.5 0  0.65 0.5 0  0.7 0.5 0  0.75 0.5 0  0.8 0.5 0  0.85 0.5 0  0.9 0.5 0  0.95 0.5 0  1 0.5 0  0 0.55 0  0.05 0.55 0  0.1 0.55 0  0.15 0.55 0  0.2 0.55 0  0.25 0.55 0  0.3 0.55 0  0.35 0.55 0  0.4 0.55 0  0.45 0.55 0  0.5 0.55 0  0.55 0.55 0  0.6 0.55 0  0.65 0.55 0  0.7 0.55 0  0.75 0.55 0  0.8 0.55 0  0.85 0.55 0  0.9 0.55 0  0.95 0.55 0  1 0.55 0  0 0.6 0  0.05 0.6 0  0.1 0.6 0  0.15 0.6 0  0.2 0.6 0  0.25 0.6 0  0.3 0.6 0  0.35 0.6 0  0.4 0.6 0  0.45 0.6 0  0.5 0.6 0  0.55 0.6 0  0.6 0.6 0  0.65 0.6 0  0.7 0.6 0  0.75 0.6 0  0.8 0.6 0  0.85 0.6 0  0.9 0.6 0  0.95 0.6 0  1 0.6 0  0 0.65 0  0.05 0.65 0  0.1 0.65 0  0.15 0.65 0  0.2 0.65 0  0.25 0.65 0  0.3 0.65 0  0.35 0.65 0  0.4 0.65 0  0.45 0.65 0  0.5 0.65 0  0.55 0.65 0  0.6 0.65 0  0.65 0.65 0  0.7 0.65 0  0.75 0.65 0  0.8 0.65 0  0.85 0.65 0  0.9 0.65 0  0.95 0.65 0  1 0.65 0  0 0.7 0  0.05 0.7 0  0.1 0.7 0  0.15 0.7 0  0.2 0.7 0  0.25 0.7 0  0.3 0.7 0  0.35 0.7 0  0.4 0.7 0  0.45 0.7 0  0.5 0.7 0  0.55 0.7 0  0.6 0.7 0  0.65 0.7 0  0.7 0.7 0  0.75 0.7 0  0.8 0.7 0  0.85 0.7 0  0.9 0.7 0  0.95 0.7 0  1 0.7 0  0 0.75 0  0.05 0.75 0  0.1 0.75 0  0.15 0.75 0  0.2 0.75 0  0.25 0.75 0  0.3 0.75 0  0.35 0.75 0  0.4 0.75 0  0.45 0.75 0  0.5 0.75 0  0.55 0.75 0  0.6 0.75 0  0.65 0.75 0  0.7 0.75 0  0.75 0.75 0  0.8 0.75 0  0.85 0.75 0  0.9 0.75 0  0.95 0.75 0  1 0.75 0  0 0.8 0  0.05 0.8 0  0.1 0.8 0  0.15 0.8 0  0.2 0.8 0  0.25 0.8 0  0.3 0.8 0  0.35 0.8 0  0.4 0.8 0  0.45 0.8 0  0.5 0.8 0  0.55 0.8 0  0.6 0.8 0  0.65 0.8 0  0.7 0.8 0  0.75 0.8 0  0.8 0.8 0  0.85 0.8 0  0.9 0.8 0  0.95 0.8 0  1 0.8 0  0 0.85 0  0.05 0.85 0  0.1 0.85 0  0.15 0.85 0  0.2 0.85 0  0.25 0.85 0  0.3 0.85 0  0.35 0.85 0  0.4 0.85 0  0.45 0.85 0  0.5 0.85 0  0.55 0.85 0  0.6 0.85 0  0.65 0.85 0  0.7 0.85 0  0.75 0.85 0  0.8 0.85 0  0.85 0.85 0  0.9 0.85 0  0.95 0.85 0  1 0.85 0  0 0.9 0  0.05 0.9 0  0.1 0.9 0  0.15 0.9 0  0.2 0.9 0  0.25 0.9 0  0.3 0.9 0  0.35 0.9 0  0.4 0.9 0  0.45 0.9 0  0.5 0.9 0  0.55 0.9 0  0.6 0.9 0  0.65 0.9 0  0.7 0.9 0  0.75 0.9 0  0.8 0.9 0  0.85 0.9 0  0.9 0.9 0  0.95 0.9 0  1 0.9 0  0 0.95 0  0.05 0.95 0  0.1 0.95 0  0.15 0.95 0  0.2 0.95 0  0.25 0.95 0  0.3 0.95 0  0.35 0.95 0  0.4 0.95 0  0.45 0.95 0  0.5 0.95 0  0.55 0.95 0  0.6 0.95 0  0.65 0.95 0  0.7 0.95 0  0.75 0.95 0  0.8 0.95 0  0.85 0.95 0  0.9 0.95 0  0.95 0.95 0  1 0.95 0  0 1 0  0.05 1 0  0.1 1 0  0.15 1 0  0.2 1 0  0.25 1 0  0.3 1 0  0.35 1 0  0.4 1 0  0.45 1 0  0.5 1 0  0.55 1 0  0.6 1 0  0.65 1 0  0.7 1 0  0.75 1 0  0.8 1 0  0.85 1 0  0.9 1 0  0.95 1 0  1 1 0  </DataArray>
</Points>
<Cells>
[...]
<PointData  Vectors="u"> 
<DataArray  type="Float64"  Name="u"  NumberOfComponents="3" format="ascii">0.0000000000000000e+00 0.0000000000000000e+00 0.0000000000000000e+00  0.0000000000000000e+00 0.0000000000000000e+00 0.0000000000000000e+00  0.0000000000000000e+00 0.0000000000000000e+00 0.0000000000000000e+00  0.0000000000000000e+00 0.0000000000000000e+00 0.0000000000000000e+00  0.0000000000000000e+00 0.0000000000000000e+00 0.0000000000000000e+00  0.0000000000000000e+00 0.0000000000000000e+00 0.0000000000000000e+00  0.0000000000000000e+00 0.0000000000000000e+00 0.0000000000000000e+00  0.0000000000000000e+00 0.0000000000000000e+00 0.0000000000000000e+00  0.0000000000000000e+00 0.0000000000000000e+00 0.0000000000000000e+00  0.0000000000000000e+00 0.0000000000000000e+00 0.0000000000000000e+00  0.0000000000000000e+00 0.0000000000000000e+00 0.0000000000000000e+00  0.0000000000000000e+00 0.0000000000000000e+00 0.0000000000000000e+00  0.0000000000000000e+00 0.0000000000000000e+00 0.0000000000000000e+00  0.0000000000000000e+00 0.0000000000000000e+00 0.0000000000000000e+00  0.0000000000000000e+00 0.0000000000000000e+00 0.0000000000000000e+00  0.0000000000000000e+00 0.0000000000000000e+00 0.0000000000000000e+00  0.0000000000000000e+00 0.0000000000000000e+00 0.0000000000000000e+00  0.0000000000000000e+00 0.0000000000000000e+00 0.0000000000000000e+00  0.0000000000000000e+00 0.0000000000000000e+00 0.0000000000000000e+00  0.0000000000000000e+00 0.0000000000000000e+00 0.0000000000000000e+00  0.0000000000000000e+00 0.0000000000000000e+00 0.0000000000000000e+00  9.7499999999999989e-02 0.0000000000000000e+00 0.0000000000000000e+00  4.0594064740579451e-02 -1.6379009949801376e-02 0.0000000000000000e+00  1.2231992931823780e-02 -8.9747601232881159e-03 0.0000000000000000e+00  2.2900326802474960e-02 -4.9779839972454451e-03 0.0000000000000000e+00  3.5393795000102153e-02 1.5095268108995784e-03 0.0000000000000000e+00  4.8987644590597401e-02 8.3493167543516097e-03 0.0000000000000000e+00  6.2092363912860563e-02 1.4099093037049953e-02 0.0000000000000000e+00  7.3940311693012128e-02 1.7957341536184213e-02 0.0000000000000000e+00  8.4150129561611789e-02 1.9759120923753062e-02 0.0000000000000000e+00  9.2582072025587991e-02 1.9689749492721037e-02 0.0000000000000000e+00  9.9264789544400406e-02 1.8096246907731171e-02 0.0000000000000000e+00  1.0433604529672637e-01 1.5359100680873972e-02 0.0000000000000000e+00  1.0799121281352016e-01 1.1812317454520669e-02 0.0000000000000000e+00  1.1042803873614050e-01 7.7001358190180837e-03 0.0000000000000000e+00  1.1177010682065427e-01 3.1645405005976306e-03 0.0000000000000000e+00  1.1193334858496164e-01 -1.7278269530034316e-03 0.0000000000000000e+00  1.1041986690932107e-01 -6.8677689838011540e-03 0.0000000000000000e+00  1.0607707218959708e-01 -1.1821030758930571e-02 0.0000000000000000e+00  9.6850814555113712e-02 -1.5396718399502664e-02 0.0000000000000000e+00  8.2942992257464668e-02 -1.5586509490516825e-02 0.0000000000000000e+00  6.8277364262615381e-02 -1.5468131881852983e-02 0.0000000000000000e+00  1.9000000000000003e-01 0.0000000000000000e+00 0.0000000000000000e+00  1.1030590586911342e-01 -2.4101246199675703e-02 0.0000000000000000e+00  7.4284788064627710e-02 -2.0860521642797392e-02 0.0000000000000000e+00  8.0542624511112770e-02 -1.1937261286590901e-02 0.0000000000000000e+00  9.5802115268112942e-02 -4.9078580193056881e-04 0.0000000000000000e+00  1.1481052001836840e-01 1.1021234512801417e-02 0.0000000000000000e+00  1.3403939670188378e-01 2.0641841632026585e-02 0.0000000000000000e+00  1.5201282232802790e-01 2.7325197764641620e-02 0.0000000000000000e+00  1.6790126696965418e-01 3.0784288954599802e-02 0.0000000000000000e+00  1.8133520076812287e-01 3.1225151528245239e-02 0.0000000000000000e+00  1.9223042107023769e-01 2.9114800972635732e-02 0.0000000000000000e+00  2.0068267244811330e-01 2.5000302433659850e-02 0.0000000000000000e+00  2.0687994289258971e-01 1.9394627971991457e-02 0.0000000000000000e+00  2.1101193858898165e-01 1.2719695364552088e-02 0.0000000000000000e+00  2.1315946973624533e-01 5.3039313723493757e-03 0.0000000000000000e+00  2.1314161514786933e-01 -2.5516709875656666e-03 0.0000000000000000e+00  2.1033782255818662e-01 -1.0409735635701566e-02 0.0000000000000000e+00  2.0360064748395895e-01 -1.7447229225439276e-02 0.0000000000000000e+00  1.9130328993095994e-01 -2.2301979684852768e-02 0.0000000000000000e+00  1.7414397507908061e-01 -2.3991568797021492e-02 0.0000000000000000e+00  1.5471314352764026e-01 -2.4856282618574057e-02 0.0000000000000000e+00  2.7749999999999997e-01 0.0000000000000000e+00 0.0000000000000000e+00  1.9901064334636587e-01 -2.5282027878405822e-02 0.0000000000000000e+00  1.5763251731519970e-01 -2.4891742066080948e-02 0.0000000000000000e+00  1.5822579911153153e-01 -1.4752851599186205e-02 0.0000000000000000e+00  1.7192104741117850e-01 -1.2512416783026783e-03 0.0000000000000000e+00  1.9151385743673202e-01 1.2339693478487035e-02 0.0000000000000000e+00  2.1242884499463366e-01 2.3836198409851836e-02 0.0000000000000000e+00  2.3263721186824085e-01 3.2040998402982683e-02 0.0000000000000000e+00  2.5095644579620607e-01 3.6538212644545792e-02 0.0000000000000000e+00  2.6679924513892322e-01 3.7464313231239520e-02 0.0000000000000000e+00  2.7991863112135862e-01 3.5271839351844074e-02 0.0000000000000000e+00  2.9028798149277235e-01 3.0543096200439268e-02 0.0000000000000000e+00  2.9799739599469610e-01 2.3869266409846105e-02 0.0000000000000000e+00  3.0315449570214748e-01 1.5790148035098230e-02 0.0000000000000000e+00  3.0577779301188546e-01 6.7941125307213893e-03 0.0000000000000000e+00  3.0567402603962884e-01 -2.6189827362980032e-03 0.0000000000000000e+00  3.0232702265502870e-01 -1.1817931898319310e-02 0.0000000000000000e+00  2.9487783744139839e-01 -1.9924230318184865e-02 0.0000000000000000e+00  2.8210464613568065e-01 -2.5886012203371514e-02 0.0000000000000000e+00  2.6448117762324846e-01 -2.9097291335662179e-02 0.0000000000000000e+00  2.4395825629803294e-01 -3.0516888038569574e-02 0.0000000000000000e+00  3.6000000000000004e-01 0.0000000000000000e+00 0.0000000000000000e+00  2.8866936672374954e-01 -2.2675133684560030e-02 0.0000000000000000e+00  2.4733708484394473e-01 -2.3350035277349458e-02 0.0000000000000000e+00  2.4428081189284762e-01 -1.3578211825428618e-02 0.0000000000000000e+00  2.5547591356718352e-01 2.2870299462212446e-05 0.0000000000000000e+00  2.7355003013966278e-01 1.3893473406580942e-02 0.0000000000000000e+00  2.9378812158767253e-01 2.5771906008747097e-02 0.0000000000000000e+00  3.1392542346537100e-01 3.4395969211691087e-02 0.0000000000000000e+00  3.3260562489324558e-01 3.9264989084623031e-02 0.0000000000000000e+00  3.4909251299049604e-01 4.0425031808731249e-02 0.0000000000000000e+00  3.6299791779830165e-01 3.8256836707154372e-02 0.0000000000000000e+00  3.7416786093838950e-01 3.3309313390912781e-02 0.0000000000000000e+00  3.8257993862855777e-01 2.6184824375870823e-02 0.0000000000000000e+00  3.8825358751812700e-01 1.7478170233876506e-02 0.0000000000000000e+00  3.9116150824716989e-01 7.7677273281715519e-03 0.0000000000000000e+00  3.9113702652243859e-01 -2.3477272381641945e-03 0.0000000000000000e+00  3.8779246060343320e-01 -1.2184942580856142e-02 0.0000000000000000e+00  3.8048358618042183e-01 -2.0937094826976067e-02 0.0000000000000000e+00  3.6818177894578180e-01 -2.7731918699268828e-02 0.0000000000000000e+00  3.5115811446062006e-01 -3.1903277497449742e-02 0.0000000000000000e+00  3.3100021458703915e-01 -3.3512657706049206e-02 0.0000000000000000e+00  4.3750000000000006e-01 0.0000000000000000e+00 0.0000000000000000e+00  3.7427252216758350e-01 -1.8913972404602946e-02 0.0000000000000000e+00  3.3618803198693165e-01 -1.9208375877669076e-02 0.0000000000000000e+00  3.3160520788519227e-01 -1.0016991077989080e-02 0.0000000000000000e+00  3.4064317247997683e-01 2.8476109560571952e-03 0.0000000000000000e+00  3.5660695679315157e-01 1.6001530354405571e-02 0.0000000000000000e+00  3.7514812879019127e-01 2.7322706012557964e-02 0.0000000000000000e+00  3.9403437690661769e-01 3.5601458547225358e-02 0.0000000000000000e+00  4.1189719733664198e-01 4.0312257174737069e-02 0.0000000000000000e+00  4.2793791120983760e-01 4.1428701766700667e-02 0.0000000000000000e+00  4.4168218012605737e-01 3.9251075913078873e-02 0.0000000000000000e+00  4.5288043926669014e-01 3.4266364240089484e-02 0.0000000000000000e+00  4.6141835615497862e-01 2.7046178400890721e-02 0.0000000000000000e+00  4.6724383990298934e-01 1.8187165776272711e-02 0.0000000000000000e+00  4.7029661937808859e-01 8.2912244348983862e-03 0.0000000000000000e+00  4.7043380792787476e-01 -2.0221370976089268e-03 0.0000000000000000e+00  4.6735451570266984e-01 -1.2085642153371694e-02 0.0000000000000000e+00  4.6053766736619434e-01 -2.1161502039431485e-02 0.0000000000000000e+00  4.4907386226853069e-01 -2.8437683008159700e-02 0.0000000000000000e+00  4.3312201743854445e-01 -3.3111894892150003e-02 0.0000000000000000e+00  4.1408439772995614e-01 -3.4762678184132929e-02 0.0000000000000000e+00  5.1000000000000012e-01 0.0000000000000000e+00 0.0000000000000000e+00  4.5481500789186591e-01 -1.5144727468039439e-02 0.0000000000000000e+00  4.2107316584731658e-01 -1.4388970531040062e-02 0.0000000000000000e+00  4.1634180595236187e-01 -5.5752173830153472e-03 0.0000000000000000e+00  4.2381710500281594e-01 6.3290689718144980e-03 0.0000000000000000e+00  4.3774079705085089e-01 1.8365350228593275e-02 0.0000000000000000e+00  4.5429751770597909e-01 2.8677015991519290e-02 0.0000000000000000e+00  4.7144814115605199e-01 3.6188042941356489e-02 0.0000000000000000e+00  4.8791667938257749e-01 4.0406229048147752e-02 0.0000000000000000e+00  5.0291475644345995e-01 4.1270898041795373e-02 0.0000000000000000e+00  5.1593708701002350e-01 3.9018410818629778e-02 0.0000000000000000e+00  5.2667868266034112e-01 3.4069739911723060e-02 0.0000000000000000e+00  5.3496350205657150e-01 2.6944765142866089e-02 0.0000000000000000e+00  5.4068823782523956e-01 1.8207073982371143e-02 0.0000000000000000e+00  5.4376662778935303e-01 8.4376651344950631e-03 0.0000000000000000e+00  5.4406608088054875e-01 -1.7668781081803598e-03 0.0000000000000000e+00  5.4133417981936627e-01 -1.1777663594461415e-02 0.0000000000000000e+00  5.3512467732219593e-01 -2.0905140865420797e-02 0.0000000000000000e+00  5.2463275845906010e-01 -2.8350053185978868e-02 0.0000000000000000e+00  5.0997417380646981e-01 -3.3209302814793465e-02 0.0000000000000000e+00  4.9242450003538024e-01 -3.4819366322047532e-02 0.0000000000000000e+00  5.7750000000000012e-01 0.0000000000000000e+00 0.0000000000000000e+00  5.2994341326440608e-01 -1.1810228834495994e-02 0.0000000000000000e+00  5.0076337098316404e-01 -9.8712226303640498e-03 0.0000000000000000e+00  4.9655108508565637e-01 -1.2493368470231185e-03 0.0000000000000000e+00  5.0295456493542512e-01 9.7426752461459553e-03 0.0000000000000000e+00  5.1510605742087900e-01 2.0598800967294328e-02 0.0000000000000000e+00  5.2972869992280136e-01 2.9762189982906112e-02 0.0000000000000000e+00  5.4504155986163316e-01 3.6334729474935240e-02 0.0000000000000000e+00  5.5990893306202560e-01 3.9899718919845360e-02 0.0000000000000000e+00  5.7359851227405856e-01 4.0397570402507729e-02 0.0000000000000000e+00  5.8561433712115285e-01 3.8023546865257413e-02 0.0000000000000000e+00  5.9563017147306840e-01 3.3140913908894107e-02 0.0000000000000000e+00  6.0343560899853088e-01 2.6212059159611688e-02 0.0000000000000000e+00  6.0889400057660514e-01 1.7750368892086636e-02 0.0000000000000000e+00  6.1189860034317189e-01 8.2931135416544413e-03 0.0000000000000000e+00  6.1231800291442384e-01 -1.6054108270794633e-03 0.0000000000000000e+00  6.0992765760357448e-01 -1.1359926540316242e-02 0.0000000000000000e+00  6.0433741507254424e-01 -2.0317650684248192e-02 0.0000000000000000e+00  5.9484837371138388e-01 -2.7687166113260452e-02 0.0000000000000000e+00  5.8156915491515426e-01 -3.2518535427452824e-02 0.0000000000000000e+00  5.6566417248360790e-01 -3.4046738827965328e-02 0.0000000000000000e+00  6.4000000000000001e-01 0.0000000000000000e+00 0.0000000000000000e+00  5.9953840819899906e-01 -9.0223944640040552e-03 0.0000000000000000e+00  5.7476659263088692e-01 -6.0387624798762850e-03 0.0000000000000000e+00  5.7132351264060677e-01 2.4567052485962079e-03 0.0000000000000000e+00  5.7697507614260946e-01 1.2639904256526174e-02 0.0000000000000000e+00  5.8762464753974886e-01 2.2390997761724377e-02 0.0000000000000000e+00  6.0048796808444893e-01 3.0435493854850306e-02 0.0000000000000000e+00  6.1404511515478299e-01 3.6058744906943510e-02 0.0000000000000000e+00  6.2731039965490865e-01 3.8937449114458837e-02 0.0000000000000000e+00  6.3962811653343332e-01 3.9036415172527081e-02 0.0000000000000000e+00  6.5053450580533301e-01 3.6530064394528314e-02 0.0000000000000000e+00  6.5970525063752006e-01 3.1736449568074407e-02 0.0000000000000000e+00  6.6691567851106992e-01 2.5063668313008231e-02 0.0000000000000000e+00  6.7200986369724236e-01 1.6970398395757355e-02 0.0000000000000000e+00  6.7486651032784650e-01 7.9420147751233690e-03 0.0000000000000000e+00  6.7535295092508396e-01 -1.5158823959498320e-03 0.0000000000000000e+00  6.7326510940018147e-01 -1.0862374312874947e-02 0.0000000000000000e+00  6.6826376098411533e-01 -1.9479797511028320e-02 0.0000000000000000e+00  6.5975736502102489e-01 -2.6595982852937936e-02 0.0000000000000000e+00  6.4786318013851496e-01 -3.1260207441493208e-02 0.0000000000000000e+00  6.3363792870183899e-01 -3.2684828893148686e-02 0.0000000000000000e+00  6.9750000000000001e-01 0.0000000000000000e+00 0.0000000000000000e+00  6.6355892070866218e-01 -6.7656568663289080e-03 0.0000000000000000e+00  6.4288540968567198e-01 -2.9858729764640182e-03 0.0000000000000000e+00  6.4025610729844773e-01 5.3489921584451063e-03 0.0000000000000000e+00  6.4533872973012563e-01 1.4798640840584836e-02 0.0000000000000000e+00  6.5470606633199291e-01 2.3554048991308359e-02 0.0000000000000000e+00  6.6601013908466067e-01 3.0580342157781919e-02 0.0000000000000000e+00  6.7796708874454226e-01 3.5327110274082411e-02 0.0000000000000000e+00  6.8973159087224745e-01 3.7564393033906018e-02 0.0000000000000000e+00  7.0072731915919806e-01 3.7292118669286403e-02 0.0000000000000000e+00  7.1053168423841084e-01 3.4677484658917512e-02 0.0000000000000000e+00  7.1883496125122004e-01 3.0004818497489899e-02 0.0000000000000000e+00  7.2541096338495381e-01 2.3634832968309039e-02 0.0000000000000000e+00  7.3009472624735949e-01 1.5973912036758020e-02 0.0000000000000000e+00  7.3275647311845293e-01 7.4553140041070743e-03 0.0000000000000000e+00  7.3326411169976502e-01 -1.4645692652914281e-03 0.0000000000000000e+00  7.3143338195956964e-01 -1.0289308959996243e-02 0.0000000000000000e+00  7.2697536487642167e-01 -1.8439620015563023e-02 0.0000000000000000e+00  7.1940422223111156e-01 -2.5177158963278181e-02 0.0000000000000000e+00  7.0885150970608857e-01 -2.9583734150668017e-02 0.0000000000000000e+00  6.9626765298754023e-01 -3.0893571631408521e-02 0.0000000000000000e+00  7.5000000000000000e-01 0.0000000000000000e+00 0.0000000000000000e+00  7.2199334820606498e-01 -4.9788600214043001e-03 0.0000000000000000e+00  7.0504984855748498e-01 -6.7788479516801392e-04 0.0000000000000000e+00  7.0318394646123616e-01 7.4021381451877741e-03 0.0000000000000000e+00  7.0779610437901541e-01 1.6150118359510354e-02 0.0000000000000000e+00  7.1605075179126787e-01 2.4006931457369578e-02 0.0000000000000000e+00  7.2598322045509323e-01 3.0130487024296423e-02 0.0000000000000000e+00  7.3651442722252847e-01 3.4106334606604047e-02 0.0000000000000000e+00  7.4692199332267750e-01 3.5786744850284241e-02 0.0000000000000000e+00  7.5670194725623641e-01 3.5207281097912636e-02 0.0000000000000000e+00  7.6547297194550068e-01 3.2534596636748056e-02 0.0000000000000000e+00  7.7294483390200253e-01 2.8027618928348142e-02 0.0000000000000000e+00  7.7889672530194642e-01 2.2006844880124825e-02 0.0000000000000000e+00  7.8316147196203056e-01 1.4831400016597862e-02 0.0000000000000000e+00  7.8560617249203335e-01 6.8855688746871212e-03 0.0000000000000000e+00  7.8610273594788505e-01 -1.4217334131751979e-03 0.0000000000000000e+00  7.8448838442448832e-01 -9.6387735376717697e-03 0.0000000000000000e+00  7.8052447015242232e-01 -1.7229221663336448e-02 0.0000000000000000e+00  7.7382633924984667e-01 -2.3501248701037206e-02 0.0000000000000000e+00  7.6454093778531951e-01 -2.7591640196171541e-02 0.0000000000000000e+00  7.5351546334115083e-01 -2.8781429644517530e-02 0.0000000000000000e+00  7.9749999999999999e-01 0.0000000000000000e+00 0.0000000000000000e+00  7.7484218734195232e-01 -3.5893634620483028e-03 0.0000000000000000e+00  7.6124412639626959e-01 9.6952409151870563e-04 0.0000000000000000e+00  7.6005285174317427e-01 8.6731307033696466e-03 0.0000000000000000e+00  7.6424864428514816e-01 1.6715193033567922e-02 0.0000000000000000e+00  7.7152388232809388e-01 2.3743296160459379e-02 0.0000000000000000e+00  7.8025127134861427e-01 2.9068099930696822e-02 0.0000000000000000e+00  7.8952710194277254e-01 3.2382239673504773e-02 0.0000000000000000e+00  7.9873296901176183e-01 3.3603980644021800e-02 0.0000000000000000e+00  8.0742640942333710e-01 3.2798793475059741e-02 0.0000000000000000e+00  8.1526283825445101e-01 3.0134046205424671e-02 0.0000000000000000e+00  8.2197157668721177e-01 2.5847986021715647e-02 0.0000000000000000e+00  8.2734003386807642e-01 2.0226534455224907e-02 0.0000000000000000e+00  8.3120288921825647e-01 1.3586665990806957e-02 0.0000000000000000e+00  8.3342819021170123e-01 6.2675967386078999e-03 0.0000000000000000e+00  8.3389510971672076e-01 -1.3669767263998526e-03 0.0000000000000000e+00  8.3246403420557813e-01 -8.9102337171650513e-03 0.0000000000000000e+00  8.2894567254042628e-01 -1.5872945012591452e-02 0.0000000000000000e+00  8.2304998824435893e-01 -2.1619328049606906e-02 0.0000000000000000e+00  8.1493858271211761e-01 -2.5355634810027856e-02 0.0000000000000000e+00  8.0536079997767895e-01 -2.6423466984858868e-02 0.0000000000000000e+00  8.3999999999999975e-01 0.0000000000000000e+00 0.0000000000000000e+00  8.2211008153824761e-01 -2.5274043284312067e-03 0.0000000000000000e+00  8.1147442090786626e-01 2.0543310703364428e-03 0.0000000000000000e+00  8.1085867130802236e-01 9.2536620226802355e-03 0.0000000000000000e+00  8.1467266383912518e-01 1.6561252158734989e-02 0.0000000000000000e+00  8.2107977782076769e-01 2.2803342962206465e-02 0.0000000000000000e+00  8.2875005500179411e-01 2.7412603532223682e-02 0.0000000000000000e+00  8.3692944652442136e-01 3.0163285637391925e-02 0.0000000000000000e+00  8.4508598798582990e-01 3.1022642455970004e-02 0.0000000000000000e+00  8.5282744715878733e-01 3.0077332761515231e-02 0.0000000000000000e+00  8.5983963997843360e-01 2.7493064734159703e-02 0.0000000000000000e+00  8.6586902146492872e-01 2.3489027762994989e-02 0.0000000000000000e+00  8.7071157311579328e-01 1.8320141849439180e-02 0.0000000000000000e+00  8.7420584166369442e-01 1.2265241960402845e-02 0.0000000000000000e+00  8.7622347140490608e-01 5.6218997210543643e-03 0.0000000000000000e+00  8.7665318829256189e-01 -1.2893618573375299e-03 0.0000000000000000e+00  8.7537928573166091e-01 -8.1067738071019541e-03 0.0000000000000000e+00  8.7225966380796260e-01 -1.4391359342567517e-02 0.0000000000000000e+00  8.6709095275228609e-01 -1.9569980796498229e-02 0.0000000000000000e+00  8.6004804327882489e-01 -2.2927420405652866e-02 0.0000000000000000e+00  8.5178985599937396e-01 -2.3873220901777396e-02 0.0000000000000000e+00  8.7749999999999995e-01 0.0000000000000000e+00 0.0000000000000000e+00  8.6380264413795260e-01 -1.7310240587747226e-03 0.0000000000000000e+00  8.5575461028253985e-01 2.6720243730086182e-03 0.0000000000000000e+00  8.5561787631096364e-01 9.2450402268480503e-03 0.0000000000000000e+00  8.5907916825381814e-01 1.5776157087512011e-02 0.0000000000000000e+00  8.6471831013331268e-01 2.1253152797477266e-02 0.0000000000000000e+00  8.7146631371968430e-01 2.5208483963065478e-02 0.0000000000000000e+00  8.7869647087238667e-01 2.7477417581470286e-02 0.0000000000000000e+00  8.8594809513705686e-01 2.8060714465588662e-02 0.0000000000000000e+00  8.9286897723080350e-01 2.7056677832031677e-02 0.000000