<?xml version="1.0"?>
<VTKFile type="UnstructuredGrid"  version="0.1"  >
<UnstructuredGrid>
<Piece  NumberOfPoints="441" NumberOfCells="800">
<Points>
<DataArray  type="Float64"  NumberOfComponents="3"  format="ascii">0 0 0  0.05 0 0  0.1 0 0  0.15 0 0  0.2 0 0  0.25 0 0  0.3 0 0  0.35 0 0  0.4 0 0  0.45 0 0  0.5 0 0  0.55 0 0  0.6 0 0  0.65 0 0  0.7 0 0  0.75 0 0  0.8 0 0  0.85 0 0  0.9 0 0  0.95 0 0  1 0 0  0 0.05 0  0.05 0.05 0  0.1 0.05 0  0.15 0.05 0  0.2 0.05 0  0.25 0.05 0  0.3 0.05 0  0.35 0.05 0  0.4 0.05 0  0.45 0.05 0  0.5 0.05 0  0.55 0.05 0  0.6 0.05 0  0.65 0.05 0  0.7 0.05 0  0.75 0.05 0  0.8 0.05 0  0.85 0.05 0  0.9 0.05 0  0.95 0.05 0  1 0.05 0  0 0.1 0  0.05 0.1 0  0.1 0.1 0  0.15 0.1 0  0.2 0.1 0  0.25 0.1 0  0.3 0.1 0  0.35 0.1 0  0.4 0.1 0  0.45 0.1 0  0.5 0.1 0  0.55 0.1 0  0.6 0.1 0  0.65 0.1 0  0.7 0.1 0  0.75 0.1 0  0.8 0.1 0  0.85 0.1 0  0.9 0.1 0  0.95 0.1 0  1 0.1 0  0 0.15 0  0.05 0.15 0  0.1 0.15 0  0.15 0.15 0  0.2 0.15 0  0.25 0.15 0  0.3 0.15 0  0.35 0.15 0  0.4 0.15 0  0.45 0.15 0  0.5 0.15 0  0.55 0.15 0  0.6 0.15 0  0.65 0.15 0  0.7 0.15 0  0.75 0.15 0  0.8 0.15 0  0.85 0.15 0  0.9 0.15 0  0.95 0.15 0  1 0.15 0  0 0.2 0  0.05 0.2 0  0.1 0.2 0  0.15 0.2 0  0.2 0.2 0  0.25 0.2 0  0.3 0.2 0  0.35 0.2 0  0.4 0.2 0  0.45 0.2 0  0.5 0.2 0  0.55 0.2 0  0.6 0.2 0  0.65 0.2 0  0.7 0.2 0  0.75 0.2 0  0.8 0.2 0  0.85 0.2 0  0.9 0.2 0  0.95 0.2 0  1 0.2 0  0 0.25 0  0.05 0.25 0  0.1 0.25 0  0.15 0.25 0  0.2 0.25 0  0.25 0.25 0  0.3 0.25 0  0.35 0.25 0  0.4 0.25 0  0.45 0.25 0  0.5 0.25 0  0.55 0.25 0  0.6 0.25 0  0.65 0.25 0  0.7 0.25 0  0.75 0.25 0  0.8 0.25 0  0.85 0.25 0  0.9 0.25 0  0.95 0.25 0  1 0.25 0  0 0.3 0  0.05 0.3 0  0.1 0.3 0  0.15 0.3 0  0.2 0.3 0  0.25 0.3 0  0.3 0.3 0  0.35 0.3 0  0.4 0.3 0  0.45 0.3 0  0.5 0.3 0  0.55 0.3 0  0.6 0.3 0  0.65 0.3 0  0.7 0.3 0  0.75 0.3 0  0.8 0.3 0  0.85 0.3 0  0.9 0.3 0  0.95 0.3 0  1 0.3 0  0 0.35 0  0.05 0.35 0  0.1 0.35 0  0.15 0.35 0  0.2 0.35 0  0.25 0.35 0  0.3 0.35 0  0.35 0.35 0  0.4 0.35 0  0.45 0.35 0  0.5 0.35 0  0.55 0.35 0  0.6 0.35 0  0.65 0.35 0  0.7 0.35 0  0.75 0.35 0  0.8 0.35 0  0.85 0.35 0  0.9 0.35 0  0.95 0.35 0  1 0.35 0  0 0.4 0  0.05 0.4 0  0.1 0.4 0  0.15 0.4 0  0.2 0.4 0  0.25 0.4 0  0.3 0.4 0  0.35 0.4 0  0.4 0.4 0  0.45 0.4 0  0.5 0.4 0  0.55 0.4 0  0.6 0.4 0  0.65 0.4 0  0.7 0.4 0  0.75 0.4 0  0.8 0.4 0  0.85 0.4 0  0.9 0.4 0  0.95 0.4 0  1 0.4 0  0 0.45 0  0.05 0.45 0  0.1 0.45 0  0.15 0.45 0  0.2 0.45 0  0.25 0.45 0  0.3 0.45 0  0.35 0.45 0  0.4 0.45 0  0.45 0.45 0  0.5 0.45 0  0.55 0.45 0  0.6 0.45 0  0.65 0.45 0  0.7 0.45 0  0.75 0.45 0  0.8 0.45 0  0.85 0.45 0  0.9 0.45 0  0.95 0.45 0  1 0.45 0  0 0.5 0  0.05 0.5 0  0.1 0.5 0  0.15 0.5 0  0.2 0.5 0  0.25 0.5 0  0.3 0.5 0  0.35 0.5 0  0.4 0.5 0  0.45 0.5 0  0.5 0.5 0  0.55 0.5 0  0.6 0.5 0  0.65 0.5 0  0.7 0.5 0  0.75 0.5 0  0.8 0.5 0  0.85 0.5 0  0.9 0.5 0  0.95 0.5 0  1 0.5 0  0 0.55 0  0.05 0.55 0  0.1 0.55 0  0.15 0.55 0  0.2 0.55 0  0.25 0.55 0  0.3 0.55 0  0.35 0.55 0  0.4 0.55 0  0.45 0.55 0  0.5 0.55 0  0.55 0.55 0  0.6 0.55 0  0.65 0.55 0  0.7 0.55 0  0.75 0.55 0  0.8 0.55 0  0.85 0.55 0  0.9 0.55 0  0.95 0.55 0  1 0.55 0  0 0.6 0  0.05 0.6 0  0.1 0.6 0  0.15 0.6 0  0.2 0.6 0  0.25 0.6 0  0.3 0.6 0  0.35 0.6 0  0.4 0.6 0  0.45 0.6 0  0.5 0.6 0  0.55 0.6 0  0.6 0.6 0  0.65 0.6 0  0.7 0.6 0  0.75 0.6 0  0.8 0.6 0  0.85 0.6 0  0.9 0.6 0  0.95 0.6 0  1 0.6 0  0 0.65 0  0.05 0.65 0  0.1 0.65 0  0.15 0.65 0  0.2 0.65 0  0.25 0.65 0  0.3 0.65 0  0.35 0.65 0  0.4 0.65 0  0.45 0.65 0  0.5 0.65 0  0.55 0.65 0  0.6 0.65 0  0.65 0.65 0  0.7 0.65 0  0.75 0.65 0  0.8 0.65 0  0.85 0.65 0  0.9 0.65 0  0.95 0.65 0  1 0.65 0  0 0.7 0  0.05 0.7 0  0.1 0.7 0  0.15 0.7 0  0.2 0.7 0  0.25 0.7 0  0.3 0.7 0  0.35 0.7 0  0.4 0.7 0  0.45 0.7 0  0.5 0.7 0  0.55 0.7 0  0.6 0.7 0  0.65 0.7 0  0.7 0.7 0  0.75 0.7 0  0.8 0.7 0  0.85 0.7 0  0.9 0.7 0  0.95 0.7 0  1 0.7 0  0 0.75 0  0.05 0.75 0  0.1 0.75 0  0.15 0.75 0  0.2 0.75 0  0.25 0.75 0  0.3 0.75 0  0.35 0.75 0  0.4 0.75 0  0.45 0.75 0  0.5 0.75 0  0.55 0.75 0  0.6 0.75 0  0.65 0.75 0  0.7 0.75 0  0.75 0.75 0  0.8 0.75 0  0.85 0.75 0  0.9 0.75 0  0.95 0.75 0  1 0.75 0  0 0.8 0  0.05 0.8 0  0.1 0.8 0  0.15 0.8 0  0.2 0.8 0  0.25 0.8 0  0.3 0.8 0  0.35 0.8 0  0.4 0.8 0  0.45 0.8 0  0.5 0.8 0  0.55 0.8 0  0.6 0.8 0  0.65 0.8 0  0.7 0.8 0  0.75 0.8 0  0.8 0.8 0  0.85 0.8 0  0.9 0.8 0  0.95 0.8 0  1 0.8 0  0 0.85 0  0.05 0.85 0  0.1 0.85 0  0.15 0.85 0  0.2 0.85 0  0.25 0.85 0  0.3 0.85 0  0.35 0.85 0  0.4 0.85 0  0.45 0.85 0  0.5 0.85 0  0.55 0.85 0  0.6 0.85 0  0.65 0.85 0  0.7 0.85 0  0.75 0.85 0  0.8 0.85 0  0.85 0.85 0  0.9 0.85 0  0.95 0.85 0  1 0.85 0  0 0.9 0  0.05 0.9 0  0.1 0.9 0  0.15 0.9 0  0.2 0.9 0  0.25 0.9 0  0.3 0.9 0  0.35 0.9 0  0.4 0.9 0  0.45 0.9 0  0.5 0.9 0  0.55 0.9 0  0.6 0.9 0  0.65 0.9 0  0.7 0.9 0  0.75 0.9 0  0.8 0.9 0  0.85 0.9 0  0.9 0.9 0  0.95 0.9 0  1 0.9 0  0 0.95 0  0.05 0.95 0  0.1 0.95 0  0.15 0.95 0  0.2 0.95 0  0.25 0.95 0  0.3 0.95 0  0.35 0.95 0  0.4 0.95 0  0.45 0.95 0  0.5 0.95 0  0.55 0.95 0  0.6 0.95 0  0.65 0.95 0  0.7 0.95 0  0.75 0.95 0  0.8 0.95 0  0.85 0.95 0  0.9 0.95 0  0.95 0.95 0  1 0.95 0  0 1 0  0.05 1 0  0.1 1 0  0.15 1 0  0.2 1 0  0.25 1 0  0.3 1 0  0.35 1 0  0.4 1 0  0.45 1 0  0.5 1 0  0.55 1 0  0.6 1 0  0.65 1 0  0.7 1 0  0.75 1 0  0.8 1 0  0.85 1 0  0.9 1 0  0.95 1 0  1 1 0  </DataArray>
</Points>
<Cells>
[...]
<PointData  Scalars="u"> 
<DataArray  type="Float64"  Name="u"  format="ascii">-1.3908487088755969e+01  -1.0947346514017791e+01  -9.4643143876392237e+00  -7.9538827611360237e+00  -6.6387382325864275e+00  -5.5196293382620540e+00  -4.5230214031044671e+00  -3.6270163397612558e+00  -2.8073272556268001e+00  -2.0473969084144290e+00  -1.3374895385775571e+00  -6.7287820012763144e-01  -5.3848477015126177e-02  5.1403696126247089e-01  1.0197532557406495e+00  1.4440106302627425e+00  1.7612766463699763e+00  1.9260668513972474e+00  1.8415581457554104e+00  1.4681916830428845e+00  -4.8603435581692511e-01  -1.0883262750910832e+01  -9.6244274332854882e+00  -8.7007443071524140e+00  -7.2981653731123552e+00  -6.1790207700014950e+00  -5.1858353623960989e+00  -4.2899333698003872e+00  -3.4808174165374708e+00  -2.7371251227436986e+00  -2.0467854043391189e+00  -1.4015081057336103e+00  -7.9659661618940736e-01  -2.3110419477546401e-01  2.9200623074489013e-01  7.6528997913162711e-01  1.1753691831230011e+00  1.5044342195808782e+00  1.7128608337800331e+00  1.7907048629916140e+00  1.5571179196914791e+00  8.9500691320685177e-01  -9.0403889679958489e+00  -8.5609424348191201e+00  -7.8331313141607151e+00  -6.6180502583191823e+00  -5.7057857961031679e+00  -4.8361972901119907e+00  -4.0460548233750533e+00  -3.3244981330381354e+00  -2.6556297682658712e+00  -2.0318076433206378e+00  -1.4464042230471772e+00  -8.9549541542141420e-01  -3.7774711402107325e-01  1.0538231115342514e-01  5.4924821193045592e-01  9.4520204521308993e-01  1.2816478959162230e+00  1.5362741901393657e+00  1.7097597654152894e+00  1.7253288040108852e+00  1.4338843096437774e+00  -7.7835553339633865e+00  -7.5435754001228013e+00  -6.9670762833265751e+00  -5.9937475370714832e+00  -5.2407846332337424e+00  -4.4860780437159749e+00  -3.7994051626914254e+00  -3.1612454967445034e+00  -2.5639937631652230e+00  -2.0027706938347638e+00  -1.4727694684436534e+00  -9.7114104521543332e-01  -4.9661084709603964e-01  -4.9760694646075979e-02  3.6680221565205434e-01  7.4790227120113539e-01  1.0876935773631435e+00  1.3724929879697334e+00  1.6170234825275869e+00  1.7728035232251458e+00  1.6887174564527416e+00  -6.7376407697877383e+00  -6.6278451766055761e+00  -6.2081429575209848e+00  -5.4227390105227036e+00  -4.7895661271152576e+00  -4.1467634999366485e+00  -3.5549335326101716e+00  -2.9942157347534817e+00  -2.4641709503698603e+00  -1.9611596741599195e+00  -1.4823321917785008e+00  -1.0258699701598770e+00  -5.9081280004368841e-01  -1.7731629783530123e-01  2.1332797453627514e-01  5.7839496717646477e-01  9.1562552453254376e-01  1.2173275815841840e+00  1.5039303879747761e+00  1.7415282703840793e+00  1.7932858120813819e+00  -5.8630074445262528e+00  -5.8394914332203873e+00  -5.5374161925180632e+00  -4.8945475024387104e+00  -4.3685310910282142e+00  -3.8267838877924509e+00  -3.3175112276032643e+00  -2.8275953312790159e+00  -2.3591101583061169e+00  -1.9094678061163421e+00  -1.4775684113702068e+00  -1.0624524289416823e+00  -6.6362266765791167e-01  -2.8112455234742462e-01  8.4497627421670191e-02  4.3202375883744720e-01  7.6133239233291650e-01  1.0683804912392370e+00  1.3751149966208580e+00  1.6572181558483168e+00  1.7900204385383114e+00  -5.1322452793700704e+00  -5.1601463026208823e+00  -4.9433618535513260e+00  -4.4180739079657680e+00  -3.9844817131521530e+00  -3.5279696841556389e+00  -3.0910572851206846e+00  -2.6648777663234950e+00  -2.2517179173966255e+00  -1.8504874955332451e+00  -1.4612837048714269e+00  -1.0838997067012708e+00  -7.1836033635032270e-01  -3.6481432205754361e-01  -2.3491683254791774e-02  3.0520005597195210e-01  6.2223994412633321e-01  9.2572185443606847e-01  1.2369540132952577e+00  1.5378424101461110e+00  1.7168933129333419e+00  -4.5170899136297082e+00  -4.5741396850892349e+00  -4.4206355834233388e+00  -3.9927852514859241e+00  -3.6361612262875775e+00  -3.2522721561979910e+00  -2.8788177796723611e+00  -2.5087380750595774e+00  -2.1447606014801446e+00  -1.7870144126164584e+00  -1.4363351502572850e+00  -1.0932230905657643e+00  -7.5821138986188708e-01  -4.3169535465713427e-01  -1.1388922691469082e-01  1.9513287794112960e-01  4.9676962492262189e-01  7.9029529064081072e-01  1.0951958859279192e+00  1.3976624045616932e+00  1.5999217654326270e+00  -3.9969610350695550e+00  -4.0689253271969861e+00  -3.9622678757110061e+00  -3.6152173779386527e+00  -3.3228558124148542e+00  -3.0010007550988820e+00  -2.6823261081949887e+00  -2.3611558308523595e+00  -2.0406254815066185e+00  -1.7215668878217640e+00  -1.4053993954777002e+00  -1.0932427053753651e+00  -7.8610124059740749e-01  -4.8470609504505635e-01  -1.8944660844035571e-01  9.9622047871126218e-02  3.8388955809058478e-01  6.6320289304745750e-01  9.5464997964136733e-01  1.2474781387774283e+00  1.4576006114241082e+00  -3.5562112324482817e+00  -3.6336673047653001e+00  -3.5615235411440627e+00  -3.2818379889743476e+00  -3.0431510877819465e+00  -2.7740187440137798e+00  -2.5023632127667672e+00  -2.2236744935719002e+00  -1.9412161907475571e+00  -1.6563061710531037e+00  -1.3708515658181739e+00  -1.0864735247821180e+00  -8.0461913621805725e-01  -5.2639749778090716e-01  -2.5248620210708300e-01  1.6882736432158815e-02  2.8283300302760095e-01  5.4540546321091010e-01  8.1907520062287564e-01  1.0953325142901864e+00  1.3033129530198975e+00  -3.1824673036870577e+00  -3.2592822108827679e+00  -3.2124382736154846e+00  -2.9890927814776145e+00  -2.7951804371244817e+00  -2.5707563973591840e+00  -2.3393225875556314e+00  -2.0973127637226909e+00  -1.8479799406440149e+00  -1.5930175978630132e+00  -1.3347031883736364e+00  -1.0750740254533664e+00  -8.1598911170722854e-01  -5.5894361961313754e-01  -3.0496326445947763e-01  -5.4569375163654524e-02  1.9295409042615241e-01  4.3761246943489590e-01  6.9127276689504091e-01  9.4711696611254259e-01  1.1467174696009652e+00  -2.8659079495099462e+00  -2.9382585266421022e+00  -2.9098201171490303e+00  -2.7336443020918910e+00  -2.5770268972105601e+00  -2.3904119861726638e+00  -2.1932251755703809e+00  -1.9826989029729680e+00  -1.7620058347274812e+00  -1.5331195695543920e+00  -1.2986013728540753e+00  -1.0608429255706395e+00  -8.2207478890550290e-01  -5.8416731411451850e-01  -3.4851656092657562e-01  -1.1598827657483554e-01  1.1366125337767191e-01  3.4027084370187988e-01  5.7323666652772520e-01  8.0705061397785816e-01  9.9471889021777182e-01  -2.5987145626901653e+00  -2.6644171977476807e+00  -2.6492344456875547e+00  -2.5125041343268615e+00  -2.3868553458981099e+00  -2.2320742250844594e+00  -2.0638795012099016e+00  -1.8801967202075158e+00  -1.6840755892935089e+00  -1.4777021893664315e+00  -1.2638607737011278e+00  -1.0452419283606049e+00  -8.2440559074851916e-01  -6.0357436336851444e-01  -3.8451025969556790e-01  -1.6843983624369394e-01  4.4394732210321412e-02  2.5359963865707863e-01  4.6631466596711546e-01  6.7807169349434626e-01  8.5217083316226605e-01  -2.3746583083483142e+00  -2.4327091381881485e+00  -2.4269525637212896e+00  -2.3230672476895786e+00  -2.2229856172840314e+00  -2.0948233102961109e+00  -1.9509749660866598e+00  -1.7899737857378100e+00  -1.6147266513474701e+00  -1.4275844961800819e+00  -1.2315065543577144e+00  -1.0294338590618779e+00  -8.2421441684462415e-01  -6.1839105929756855e-01  -4.1406973943373432e-01  -2.1282823415128210e-01  -1.5374525829898011e-02  1.7764138374603805e-01  3.7135907011536318e-01  5.6215428897690078e-01  7.2240330901873495e-01  -2.1887900728693861e+00  -2.2390406649110757e+00  -2.2398807795940225e+00  -2.1631103734744688e+00  -2.0839303224970682e+00  -1.9777882107225573e+00  -1.8541439810172007e+00  -1.7120659152215507e+00  -1.5543132649338423e+00  -1.3833662680349796e+00  -1.2023210501801525e+00  -1.0143268313472305e+00  -8.2247866539536663e-01  -6.2960191541009902e-01  -4.3811307898312640e-01  -2.4991407349161968e-01  -6.6136908249779025e-02  1.1231571355660262e-01  2.8885850312658090e-01  4.6056337575251477e-01  6.0762827357883442e-01  -2.0372029315554490e+00  -2.0801269077534879e+00  -2.0854889574867363e+00  -2.0307741058041642e+00  -1.9684092324550164e+00  -1.8801811087487186e+00  -1.7730075499084046e+00  -1.6464268288245778e+00  -1.5030553780924012e+00  -1.3454756452810890e+00  -1.1768898663643705e+00  -1.0006175218735818e+00  -8.1996039623095840e-01  -6.3798549280599726e-01  -4.5737892234155703e-01  -2.8032827863418663e-01  -1.0833500211100340e-01  5.7466366391698817e-02  2.1904736071447117e-01  3.7405833606543426e-01  5.0925400232643292e-01  -1.9168552185342795e+00  -1.9533682787632460e+00  -1.9617453559055731e+00  -1.9245381447156145e+00  -1.8753511889540722e+00  -1.8013178216128511e+00  -1.7072067120892671e+00  -1.5929654780765137e+00  -1.4610788223109310e+00  -1.3142101026629260e+00  -1.1556420035504351e+00  -9.8882967428071444e-01  -8.1724229971011630e-01  -6.4414578234091824e-01  -4.7245019633212926e-01  -3.0458383645920523e-01  -1.4235425784895622e-01  1.2905202556888078e-02  1.6199800505957110e-01  3.0305340288402977e-01  4.2812812313537130e-01  -1.8253897515022588e+00  -1.8567593521445693e+00  -1.8670655794815008e+00  -1.8431961272085047e+00  -1.8038927549492481e+00  -1.7406309664142974e+00  -1.6564259007042179e+00  -1.5515757089425208e+00  -1.4284486000949661e+00  -1.2897714210631031e+00  -1.1388852651352950e+00  -9.7934890398779573e-01  -8.1476054444695545e-01  -6.4854132255060348e-01  -4.8377706215063476e-01  -3.2308727687977801e-01  -1.6851621678365630e-01  -2.1564362798310553e-02  1.1767322215339748e-01  2.4773470755683275e-01  3.6472468811765102e-01  -1.7610969527627751e+00  -1.7888556202996679e+00  -1.8002337510680058e+00  -1.7858351077147772e+00  -1.7533664282207395e+00  -1.6976724729814963e+00  -1.6204039795931753e+00  -1.5221529834544356e+00  -1.4051890921900401e+00  -1.2722875588631593e+00  -1.1268285529894730e+00  -9.7244419812008975e-01  -8.1282427678080904e-01  -6.5150113820401989e-01  -4.9168666610581901e-01  -3.3613920387006296e-01  -1.8707102383431215e-01  -4.6113493182139274e-02  8.6032414873396690e-02  2.0820224815157398e-01  3.1928643687846575e-01  -1.7236314694314725e+00  -1.7483729678599331e+00  -1.7604892513714379e+00  -1.7518286063770376e+00  -1.7233178358049883e+00  -1.6721365983398369e+00  -1.5989604941356346e+00  -1.5046261563985019e+00  -1.3913180143538890e+00  -1.2618494782199403e+00  -1.1196204593046020e+00  -9.6830804417013405e-01  -8.1165652811365918e-01  -6.5326531218491923e-01  -4.9642201299549638e-01  -3.4397005382225854e-01  -1.9821979747734539e-01  -6.0885117889436867e-02  6.6961820337091735e-02  1.8428883124016029e-01  2.9186967983887063e-01  -1.7071164670456529e+00  -1.7351636634626726e+00  -1.7472358726818082e+00  -1.7407208375313989e+00  -1.7134372514608689e+00  -1.6637706618751948e+00  -1.5919470039052370e+00  -1.4989011606896836e+00  -1.3868002670521187e+00  -1.2584621468306061e+00  -1.1172986246329382e+00  -9.6700039565202334e-01  -8.1133124975304538e-01  -6.5391316689034507e-01  -4.9805963077135929e-01  -3.4664337007897444e-01  -2.0200516067777324e-01  -6.5896690399761926e-02  6.0468931243856459e-02  1.7629396994029575e-01  2.8298868032001900e-01  </DataArray> 
</PointData> 
</Piece>
</UnstructuredGrid>
</VTKFile>