<?xml version="1.0"?>
<VTKFile type="UnstructuredGrid"  version="0.1"  >
<UnstructuredGrid>
<Piece  NumberOfPoints="21" NumberOfCells="20">
<Points>
<DataArray  type="Float64"  NumberOfComponents="3"  format="ascii">0 0 0  0.05 0 0  0.1 0 0  0.15 0 0  0.2 0 0  0.25 0 0  0.3 0 0  0.35 0 0  0.4 0 0  0.45 0 0  0.5 0 0  0.55 0 0  0.6 0 0  0.65 0 0  0.7 0 0  0.75 0 0  0.8 0 0  0.85 0 0  0.9 0 0  0.95 0 0  1 0 0  </DataArray>
</Points>
<Cells>
<DataArray  type="UInt32"  Name="connectivity"  format="ascii">0 1  1 2  2 3  3 4  4 5  5 6  6 7  7 8  8 9  9 10  10 11  11 12  12 13  13 14  14 15  15 16  16 17  17 18  18 19  19 20  </DataArray>
<DataArray  type="UInt32"  Name="offsets"  format="ascii">2 4 6 8 10 12 14 16 18 20 22 24 26 28 30 32 34 36 38 40 </DataArray>
<DataArray  type="UInt8"  Name="types"  format="ascii">3 3 3 3 3 3 3 3 3 3 3 3 3 3 3 3 3 3 3 3 </DataArray>
</Cells>
<PointData  Scalars="u"> 
<DataArray  type="Float64"  Name="u"  format="ascii">-2.9655648465720000e-03  -2.0594200650942698e-01  -2.1386533536553301e-01  -2.1130451934261396e-01  -2.0445233968598867e-01  -1.9694244268850644e-01  -1.9024421734845065e-01  -1.8346736661434368e-01  -1.7581814962851497e-01  -1.6663154195449451e-01  -1.5544398863354403e-01  -1.4206453395830976e-01  -1.2658782401463395e-01  -1.0937438286110883e-01  -9.0992983400195543e-02  -7.2121732475377273e-02  -5.3530740701314708e-02  -3.6066171927737485e-02  -2.1613565076951925e-02  -1.6957965676946116e-02  -2.9655648465720698e-03  </DataArray> 
</PointData> 
</Piece>
</UnstructuredGrid>
</VTKFile>