<?xml version="1.0"?>
<VTKFile type="UnstructuredGrid"  version="0.1"  >
<UnstructuredGrid>
<Piece  NumberOfPoints="21" NumberOfCells="20">
<Points>
<DataArray  type="Float64"  NumberOfComponents="3"  format="ascii">0 0 0  0.05 0 0  0.1 0 0  0.15 0 0  0.2 0 0  0.25 0 0  0.3 0 0  0.35 0 0  0.4 0 0  0.45 0 0  0.5 0 0  0.55 0 0  0.6 0 0  0.65 0 0  0.7 0 0  0.75 0 0  0.8 0 0  0.85 0 0  0.9 0 0  0.95 0 0  1 0 0  </DataArray>
</Points>
<Cells>
<DataArray  type="UInt32"  Name="connectivity"  format="ascii">0 1  1 2  2 3  3 4  4 5  5 6  6 7  7 8  8 9  9 10  10 11  11 12  12 13  13 14  14 15  15 16  16 17  17 18  18 19  19 20  </DataArray>
<DataArray  type="UInt32"  Name="offsets"  format="ascii">2 4 6 8 10 12 14 16 18 20 22 24 26 28 30 32 34 36 38 40 </DataArray>
<DataArray  type="UInt8"  Name="types"  format="ascii">3 3 3 3 3 3 3 3 3 3 3 3 3 3 3 3 3 3 3 3 </DataArray>
</Cells>
<PointData  Scalars="u"> 
<DataArray  type="Float64"  Name="u"  format="ascii">-3.3333333333325358e-04  -2.4375915553722943e-01  -2.4448379634143788e-01  -2.2758791496567041e-01  -2.1388988775451467e-01  -2.0251189241105877e-01  -1.9346878640774431e-01  -1.8532727811589694e-01  -1.7675513139647434e-01  -1.6678807923690120e-01  -1.5481280925500213e-01  -1.4060787512424752e-01  -1.2433209713539013e-01  -1.0645070633542077e-01  -8.7618809223113103e-02  -6.8541534775845472e-02  -4.9990095740868989e-02  -3.2728375193648705e-02  -1.8775740023753072e-02  -1.4655105112025805e-02  -3.3333333333334931e-04  </DataArray> 
</PointData> 
</Piece>
</UnstructuredGrid>
</VTKFile>