<?xml version="1.0"?>
<VTKFile type="UnstructuredGrid"  version="0.1"  >
<UnstructuredGrid>
<Piece  NumberOfPoints="21" NumberOfCells="20">
<Points>
<DataArray  type="Float64"  NumberOfComponents="3"  format="ascii">0 0 0  0.05 0 0  0.1 0 0  0.15 0 0  0.2 0 0  0.25 0 0  0.3 0 0  0.35 0 0  0.4 0 0  0.45 0 0  0.5 0 0  0.55 0 0  0.6 0 0  0.65 0 0  0.7 0 0  0.75 0 0  0.8 0 0  0.85 0 0  0.9 0 0  0.95 0 0  1 0 0  </DataArray>
</Points>
<Cells>
<DataArray  type="UInt32"  Name="connectivity"  format="ascii">0 1  1 2  2 3  3 4  4 5  5 6  6 7  7 8  8 9  9 10  10 11  11 12  12 13  13 14  14 15  15 16  16 17  17 18  18 19  19 20  </DataArray>
<DataArray  type="UInt32"  Name="offsets"  format="ascii">2 4 6 8 10 12 14 16 18 20 22 24 26 28 30 32 34 36 38 40 </DataArray>
<DataArray  type="UInt8"  Name="types"  format="ascii">3 3 3 3 3 3 3 3 3 3 3 3 3 3 3 3 3 3 3 3 </DataArray>
</Cells>
<PointData  Scalars="u"> 
<DataArray  type="Float64"  Name="u"  format="ascii">-8.0414545228846453e-03  -1.6007903282320274e-01  -1.7374121359986050e-01  -1.8763628730385845e-01  -1.8926224917132670e-01  -1.8761745222246212e-01  -1.8466301980800107e-01  -1.8021997381442695e-01  -1.7425380831168441e-01  -1.6649544079984532e-01  -1.5671842786557610e-01  -1.4480541218434426e-01  -1.3078114627988208e-01  -1.1485039531861653e-01  -9.7407000472523278e-02  -7.9041870793465127e-02  -6.0456127070740953e-02  -4.2651262662657771e-02  -2.7206242644280364e-02  -2.1486430188975465e-02  -8.0414545228846678e-03  </DataArray> 
</PointData> 
</Piece>
</UnstructuredGrid>
</VTKFile>