<?xml version="1.0"?>
<VTKFile type="UnstructuredGrid"  version="0.1"  >
<UnstructuredGrid>
<Piece  NumberOfPoints="21" NumberOfCells="20">
<Points>
<DataArray  type="Float64"  NumberOfComponents="3"  format="ascii">0 0 0  0.05 0 0  0.1 0 0  0.15 0 0  0.2 0 0  0.25 0 0  0.3 0 0  0.35 0 0  0.4 0 0  0.45 0 0  0.5 0 0  0.55 0 0  0.6 0 0  0.65 0 0  0.7 0 0  0.75 0 0  0.8 0 0  0.85 0 0  0.9 0 0  0.95 0 0  1 0 0  </DataArray>
</Points>
<Cells>
<DataArray  type="UInt32"  Name="connectivity"  format="ascii">0 1  1 2  2 3  3 4  4 5  5 6  6 7  7 8  8 9  9 10  10 11  11 12  12 13  13 14  14 15  15 16  16 17  17 18  18 19  19 20  </DataArray>
<DataArray  type="UInt32"  Name="offsets"  format="ascii">2 4 6 8 10 12 14 16 18 20 22 24 26 28 30 32 34 36 38 40 </DataArray>
<DataArray  type="UInt8"  Name="types"  format="ascii">3 3 3 3 3 3 3 3 3 3 3 3 3 3 3 3 3 3 3 3 </DataArray>
</Cells>
<PointData  Scalars="u"> 
<DataArray  type="Float64"  Name="u"  format="ascii">-5.5276031917559382e-03  -1.7971266554383455e-01  -1.9109899618072215e-01  -1.9824437444285492e-01  -1.9629477387298080e-01  -1.9199212756441178e-01  -1.8731275953958165e-01  -1.8176576702194544e-01  -1.7498581097387200e-01  -1.6653459499907314e-01  -1.5607691873536722e-01  -1.4345818737941401e-01  -1.2873040712190909e-01  -1.1216765827360119e-01  -9.4250423372546549e-02  -7.5617096540519194e-02  -5.7014289809171358e-02  -3.9367585564697778e-02  -2.4416941404898800e-02  -1.9228797304588586e-02  -5.5276031917560007e-03  </DataArray> 
</PointData> 
</Piece>
</UnstructuredGrid>
</VTKFile>