<?xml version="1.0"?>
<VTKFile type="UnstructuredGrid"  version="0.1"  >
<UnstructuredGrid>
<Piece  NumberOfPoints="21" NumberOfCells="20">
<Points>
<DataArray  type="Float64"  NumberOfComponents="3"  format="ascii">0 0 0  0.05 0 0  0.1 0 0  0.15 0 0  0.2 0 0  0.25 0 0  0.3 0 0  0.35 0 0  0.4 0 0  0.45 0 0  0.5 0 0  0.55 0 0  0.6 0 0  0.65 0 0  0.7 0 0  0.75 0 0  0.8 0 0  0.85 0 0  0.9 0 0  0.95 0 0  1 0 0  </DataArray>
</Points>
<Cells>
<DataArray  type="UInt32"  Name="connectivity"  format="ascii">0 1  1 2  2 3  3 4  4 5  5 6  6 7  7 8  8 9  9 10  10 11  11 12  12 13  13 14  14 15  15 16  16 17  17 18  18 19  19 20  </DataArray>
<DataArray  type="UInt32"  Name="offsets"  format="ascii">2 4 6 8 10 12 14 16 18 20 22 24 26 28 30 32 34 36 38 40 </DataArray>
<DataArray  type="UInt8"  Name="types"  format="ascii">3 3 3 3 3 3 3 3 3 3 3 3 3 3 3 3 3 3 3 3 </DataArray>
</Cells>
<PointData  Scalars="u"> 
<DataArray  type="Float64"  Name="u"  format="ascii">-4.2537585329273280e-03  -1.9179314108440568e-01  -2.0168365149762710e-01  -2.0442596255966605e-01  -2.0022307690604332e-01  -1.9439244267041980e-01  -1.8874262392439917e-01  -1.8259706293921349e-01  -1.7538931631563837e-01  -1.6657583008732715e-01  -1.5575980889557683e-01  -1.4276811768000014e-01  -1.2767180902329686e-01  -1.1078595437080689e-01  -9.2635164151808322e-02  -7.3878962312683205e-02  -5.5278498632412659e-02  -3.7720054931440108e-02  -2.3018077755953152e-02  -1.8096003385569485e-02  -4.2537585329274034e-03  </DataArray> 
</PointData> 
</Piece>
</UnstructuredGrid>
</VTKFile>