<?xml version="1.0"?>
<VTKFile type="UnstructuredGrid"  version="0.1"  >
<UnstructuredGrid>
<Piece  NumberOfPoints="21" NumberOfCells="20">
<Points>
<DataArray  type="Float64"  NumberOfComponents="3"  format="ascii">0 0 0  0.05 0 0  0.1 0 0  0.15 0 0  0.2 0 0  0.25 0 0  0.3 0 0  0.35 0 0  0.4 0 0  0.45 0 0  0.5 0 0  0.55 0 0  0.6 0 0  0.65 0 0  0.7 0 0  0.75 0 0  0.8 0 0  0.85 0 0  0.9 0 0  0.95 0 0  1 0 0  </DataArray>
</Points>
<Cells>
<DataArray  type="UInt32"  Name="connectivity"  format="ascii">0 1  1 2  2 3  3 4  4 5  5 6  6 7  7 8  8 9  9 10  10 11  11 12  12 13  13 14  14 15  15 16  16 17  17 18  18 19  19 20  </DataArray>
<DataArray  type="UInt32"  Name="offsets"  format="ascii">2 4 6 8 10 12 14 16 18 20 22 24 26 28 30 32 34 36 38 40 </DataArray>
<DataArray  type="UInt8"  Name="types"  format="ascii">3 3 3 3 3 3 3 3 3 3 3 3 3 3 3 3 3 3 3 3 </DataArray>
</Cells>
<PointData  Scalars="u"> 
<DataArray  type="Float64"  Name="u"  format="ascii">-6.7895020811748214e-03  -1.6924454212878168e-01  -1.8185294201649019e-01  -1.9267238332817543e-01  -1.9264762242988048e-01  -1.8973581581520846e-01  -1.8595333977330394e-01  -1.8097340010687579e-01  -1.7460734106800468e-01  -1.6650777132365813e-01  -1.5639617910463474e-01  -1.4413669493661269e-01  -1.2976610369449035e-01  -1.1352178472898018e-01  -9.5840526837694895e-02  -7.7337656074894609e-02  -5.8739739808308392e-02  -4.1010776117406229e-02  -2.5812379873574477e-02  -2.0358382171405259e-02  -6.7895020811748856e-03  </DataArray> 
</PointData> 
</Piece>
</UnstructuredGrid>
</VTKFile>