<?xml version="1.0"?>
<VTKFile type="UnstructuredGrid"  version="0.1"  >
<UnstructuredGrid>
<Piece  NumberOfPoints="21" NumberOfCells="20">
<Points>
<DataArray  type="Float64"  NumberOfComponents="3"  format="ascii">0 0 0  0.05 0 0  0.1 0 0  0.15 0 0  0.2 0 0  0.25 0 0  0.3 0 0  0.35 0 0  0.4 0 0  0.45 0 0  0.5 0 0  0.55 0 0  0.6 0 0  0.65 0 0  0.7 0 0  0.75 0 0  0.8 0 0  0.85 0 0  0.9 0 0  0.95 0 0  1 0 0  </DataArray>
</Points>
<Cells>
<DataArray  type="UInt32"  Name="connectivity"  format="ascii">0 1  1 2  2 3  3 4  4 5  5 6  6 7  7 8  8 9  9 10  10 11  11 12  12 13  13 14  14 15  15 16  16 17  17 18  18 19  19 20  </DataArray>
<DataArray  type="UInt32"  Name="offsets"  format="ascii">2 4 6 8 10 12 14 16 18 20 22 24 26 28 30 32 34 36 38 40 </DataArray>
<DataArray  type="UInt8"  Name="types"  format="ascii">3 3 3 3 3 3 3 3 3 3 3 3 3 3 3 3 3 3 3 3 </DataArray>
</Cells>
<PointData  Scalars="u"> 
<DataArray  type="Float64"  Name="u"  format="ascii">-2.9571259043693822e-04  -1.3734003451058945e-02  -1.4347062338227358e-02  -1.4408554404208291e-02  -1.4057719719396275e-02  -1.3628394883388423e-02  -1.3222036872805688e-02  -1.2787279089851394e-02  -1.2280825276978775e-02  -1.1662353019427770e-02  -1.0903367274980886e-02  -9.9918608818364719e-03  -8.9334504646947019e-03  -7.7508121406526069e-03  -6.4806666655385838e-03  -5.1688231257787636e-03  -3.8677838801919094e-03  -2.6394761988155126e-03  -1.6104359129822620e-03  -1.2659480783592551e-03  -2.9571259043690965e-04  </DataArray> 
</PointData> 
</Piece>
</UnstructuredGrid>
</VTKFile>