<?xml version="1.0"?>
<VTKFile type="UnstructuredGrid"  version="0.1"  >
<UnstructuredGrid>
<Piece  NumberOfPoints="441" NumberOfCells="800">
<Points>
<DataArray  type="Float64"  NumberOfComponents="3"  format="ascii">0 0 0  0.05 0 0  0.1 0 0  0.15 0 0  0.2 0 0  0.25 0 0  0.3 0 0  0.35 0 0  0.4 0 0  0.45 0 0  0.5 0 0  0.55 0 0  0.6 0 0  0.65 0 0  0.7 0 0  0.75 0 0  0.8 0 0  0.85 0 0  0.9 0 0  0.95 0 0  1 0 0  0 0.05 0  0.05 0.05 0  0.1 0.05 0  0.15 0.05 0  0.2 0.05 0  0.25 0.05 0  0.3 0.05 0  0.35 0.05 0  0.4 0.05 0  0.45 0.05 0  0.5 0.05 0  0.55 0.05 0  0.6 0.05 0  0.65 0.05 0  0.7 0.05 0  0.75 0.05 0  0.8 0.05 0  0.85 0.05 0  0.9 0.05 0  0.95 0.05 0  1 0.05 0  0 0.1 0  0.05 0.1 0  0.1 0.1 0  0.15 0.1 0  0.2 0.1 0  0.25 0.1 0  0.3 0.1 0  0.35 0.1 0  0.4 0.1 0  0.45 0.1 0  0.5 0.1 0  0.55 0.1 0  0.6 0.1 0  0.65 0.1 0  0.7 0.1 0  0.75 0.1 0  0.8 0.1 0  0.85 0.1 0  0.9 0.1 0  0.95 0.1 0  1 0.1 0  0 0.15 0  0.05 0.15 0  0.1 0.15 0  0.15 0.15 0  0.2 0.15 0  0.25 0.15 0  0.3 0.15 0  0.35 0.15 0  0.4 0.15 0  0.45 0.15 0  0.5 0.15 0  0.55 0.15 0  0.6 0.15 0  0.65 0.15 0  0.7 0.15 0  0.75 0.15 0  0.8 0.15 0  0.85 0.15 0  0.9 0.15 0  0.95 0.15 0  1 0.15 0  0 0.2 0  0.05 0.2 0  0.1 0.2 0  0.15 0.2 0  0.2 0.2 0  0.25 0.2 0  0.3 0.2 0  0.35 0.2 0  0.4 0.2 0  0.45 0.2 0  0.5 0.2 0  0.55 0.2 0  0.6 0.2 0  0.65 0.2 0  0.7 0.2 0  0.75 0.2 0  0.8 0.2 0  0.85 0.2 0  0.9 0.2 0  0.95 0.2 0  1 0.2 0  0 0.25 0  0.05 0.25 0  0.1 0.25 0  0.15 0.25 0  0.2 0.25 0  0.25 0.25 0  0.3 0.25 0  0.35 0.25 0  0.4 0.25 0  0.45 0.25 0  0.5 0.25 0  0.55 0.25 0  0.6 0.25 0  0.65 0.25 0  0.7 0.25 0  0.75 0.25 0  0.8 0.25 0  0.85 0.25 0  0.9 0.25 0  0.95 0.25 0  1 0.25 0  0 0.3 0  0.05 0.3 0  0.1 0.3 0  0.15 0.3 0  0.2 0.3 0  0.25 0.3 0  0.3 0.3 0  0.35 0.3 0  0.4 0.3 0  0.45 0.3 0  0.5 0.3 0  0.55 0.3 0  0.6 0.3 0  0.65 0.3 0  0.7 0.3 0  0.75 0.3 0  0.8 0.3 0  0.85 0.3 0  0.9 0.3 0  0.95 0.3 0  1 0.3 0  0 0.35 0  0.05 0.35 0  0.1 0.35 0  0.15 0.35 0  0.2 0.35 0  0.25 0.35 0  0.3 0.35 0  0.35 0.35 0  0.4 0.35 0  0.45 0.35 0  0.5 0.35 0  0.55 0.35 0  0.6 0.35 0  0.65 0.35 0  0.7 0.35 0  0.75 0.35 0  0.8 0.35 0  0.85 0.35 0  0.9 0.35 0  0.95 0.35 0  1 0.35 0  0 0.4 0  0.05 0.4 0  0.1 0.4 0  0.15 0.4 0  0.2 0.4 0  0.25 0.4 0  0.3 0.4 0  0.35 0.4 0  0.4 0.4 0  0.45 0.4 0  0.5 0.4 0  0.55 0.4 0  0.6 0.4 0  0.65 0.4 0  0.7 0.4 0  0.75 0.4 0  0.8 0.4 0  0.85 0.4 0  0.9 0.4 0  0.95 0.4 0  1 0.4 0  0 0.45 0  0.05 0.45 0  0.1 0.45 0  0.15 0.45 0  0.2 0.45 0  0.25 0.45 0  0.3 0.45 0  0.35 0.45 0  0.4 0.45 0  0.45 0.45 0  0.5 0.45 0  0.55 0.45 0  0.6 0.45 0  0.65 0.45 0  0.7 0.45 0  0.75 0.45 0  0.8 0.45 0  0.85 0.45 0  0.9 0.45 0  0.95 0.45 0  1 0.45 0  0 0.5 0  0.05 0.5 0  0.1 0.5 0  0.15 0.5 0  0.2 0.5 0  0.25 0.5 0  0.3 0.5 0  0.35 0.5 0  0.4 0.5 0  0.45 0.5 0  0.5 0.5 0  0.55 0.5 0  0.6 0.5 0  0.65 0.5 0  0.7 0.5 0  0.75 0.5 0  0.8 0.5 0  0.85 0.5 0  0.9 0.5 0  0.95 0.5 0  1 0.5 0  0 0.55 0  0.05 0.55 0  0.1 0.55 0  0.15 0.55 0  0.2 0.55 0  0.25 0.55 0  0.3 0.55 0  0.35 0.55 0  0.4 0.55 0  0.45 0.55 0  0.5 0.55 0  0.55 0.55 0  0.6 0.55 0  0.65 0.55 0  0.7 0.55 0  0.75 0.55 0  0.8 0.55 0  0.85 0.55 0  0.9 0.55 0  0.95 0.55 0  1 0.55 0  0 0.6 0  0.05 0.6 0  0.1 0.6 0  0.15 0.6 0  0.2 0.6 0  0.25 0.6 0  0.3 0.6 0  0.35 0.6 0  0.4 0.6 0  0.45 0.6 0  0.5 0.6 0  0.55 0.6 0  0.6 0.6 0  0.65 0.6 0  0.7 0.6 0  0.75 0.6 0  0.8 0.6 0  0.85 0.6 0  0.9 0.6 0  0.95 0.6 0  1 0.6 0  0 0.65 0  0.05 0.65 0  0.1 0.65 0  0.15 0.65 0  0.2 0.65 0  0.25 0.65 0  0.3 0.65 0  0.35 0.65 0  0.4 0.65 0  0.45 0.65 0  0.5 0.65 0  0.55 0.65 0  0.6 0.65 0  0.65 0.65 0  0.7 0.65 0  0.75 0.65 0  0.8 0.65 0  0.85 0.65 0  0.9 0.65 0  0.95 0.65 0  1 0.65 0  0 0.7 0  0.05 0.7 0  0.1 0.7 0  0.15 0.7 0  0.2 0.7 0  0.25 0.7 0  0.3 0.7 0  0.35 0.7 0  0.4 0.7 0  0.45 0.7 0  0.5 0.7 0  0.55 0.7 0  0.6 0.7 0  0.65 0.7 0  0.7 0.7 0  0.75 0.7 0  0.8 0.7 0  0.85 0.7 0  0.9 0.7 0  0.95 0.7 0  1 0.7 0  0 0.75 0  0.05 0.75 0  0.1 0.75 0  0.15 0.75 0  0.2 0.75 0  0.25 0.75 0  0.3 0.75 0  0.35 0.75 0  0.4 0.75 0  0.45 0.75 0  0.5 0.75 0  0.55 0.75 0  0.6 0.75 0  0.65 0.75 0  0.7 0.75 0  0.75 0.75 0  0.8 0.75 0  0.85 0.75 0  0.9 0.75 0  0.95 0.75 0  1 0.75 0  0 0.8 0  0.05 0.8 0  0.1 0.8 0  0.15 0.8 0  0.2 0.8 0  0.25 0.8 0  0.3 0.8 0  0.35 0.8 0  0.4 0.8 0  0.45 0.8 0  0.5 0.8 0  0.55 0.8 0  0.6 0.8 0  0.65 0.8 0  0.7 0.8 0  0.75 0.8 0  0.8 0.8 0  0.85 0.8 0  0.9 0.8 0  0.95 0.8 0  1 0.8 0  0 0.85 0  0.05 0.85 0  0.1 0.85 0  0.15 0.85 0  0.2 0.85 0  0.25 0.85 0  0.3 0.85 0  0.35 0.85 0  0.4 0.85 0  0.45 0.85 0  0.5 0.85 0  0.55 0.85 0  0.6 0.85 0  0.65 0.85 0  0.7 0.85 0  0.75 0.85 0  0.8 0.85 0  0.85 0.85 0  0.9 0.85 0  0.95 0.85 0  1 0.85 0  0 0.9 0  0.05 0.9 0  0.1 0.9 0  0.15 0.9 0  0.2 0.9 0  0.25 0.9 0  0.3 0.9 0  0.35 0.9 0  0.4 0.9 0  0.45 0.9 0  0.5 0.9 0  0.55 0.9 0  0.6 0.9 0  0.65 0.9 0  0.7 0.9 0  0.75 0.9 0  0.8 0.9 0  0.85 0.9 0  0.9 0.9 0  0.95 0.9 0  1 0.9 0  0 0.95 0  0.05 0.95 0  0.1 0.95 0  0.15 0.95 0  0.2 0.95 0  0.25 0.95 0  0.3 0.95 0  0.35 0.95 0  0.4 0.95 0  0.45 0.95 0  0.5 0.95 0  0.55 0.95 0  0.6 0.95 0  0.65 0.95 0  0.7 0.95 0  0.75 0.95 0  0.8 0.95 0  0.85 0.95 0  0.9 0.95 0  0.95 0.95 0  1 0.95 0  0 1 0  0.05 1 0  0.1 1 0  0.15 1 0  0.2 1 0  0.25 1 0  0.3 1 0  0.35 1 0  0.4 1 0  0.45 1 0  0.5 1 0  0.55 1 0  0.6 1 0  0.65 1 0  0.7 1 0  0.75 1 0  0.8 1 0  0.85 1 0  0.9 1 0  0.95 1 0  1 1 0  </DataArray>
</Points>
<Cells>
[...]
<PointData  Vectors="u"> 
<DataArray  type="Float64"  Name="u"  NumberOfComponents="3" format="ascii">0.0000000000000000e+00 0.0000000000000000e+00 0.0000000000000000e+00  0.0000000000000000e+00 0.0000000000000000e+00 0.0000000000000000e+00  0.0000000000000000e+00 0.0000000000000000e+00 0.0000000000000000e+00  0.0000000000000000e+00 0.0000000000000000e+00 0.0000000000000000e+00  0.0000000000000000e+00 0.0000000000000000e+00 0.0000000000000000e+00  0.0000000000000000e+00 0.0000000000000000e+00 0.0000000000000000e+00  0.0000000000000000e+00 0.0000000000000000e+00 0.0000000000000000e+00  0.0000000000000000e+00 0.0000000000000000e+00 0.0000000000000000e+00  0.0000000000000000e+00 0.0000000000000000e+00 0.0000000000000000e+00  0.0000000000000000e+00 0.0000000000000000e+00 0.0000000000000000e+00  0.0000000000000000e+00 0.0000000000000000e+00 0.0000000000000000e+00  0.0000000000000000e+00 0.0000000000000000e+00 0.0000000000000000e+00  0.0000000000000000e+00 0.0000000000000000e+00 0.0000000000000000e+00  0.0000000000000000e+00 0.0000000000000000e+00 0.0000000000000000e+00  0.0000000000000000e+00 0.0000000000000000e+00 0.0000000000000000e+00  0.0000000000000000e+00 0.0000000000000000e+00 0.0000000000000000e+00  0.0000000000000000e+00 0.0000000000000000e+00 0.0000000000000000e+00  0.0000000000000000e+00 0.0000000000000000e+00 0.0000000000000000e+00  0.0000000000000000e+00 0.0000000000000000e+00 0.0000000000000000e+00  0.0000000000000000e+00 0.0000000000000000e+00 0.0000000000000000e+00  0.0000000000000000e+00 0.0000000000000000e+00 0.0000000000000000e+00  9.7499999999999989e-02 0.0000000000000000e+00 0.0000000000000000e+00  1.3220922738289581e-01 6.7162414278743338e-02 0.0000000000000000e+00  1.4754295384639224e-01 8.4249524249467189e-02 0.0000000000000000e+00  1.6143120951030418e-01 8.5514764566458346e-02 0.0000000000000000e+00  1.6670222511540944e-01 7.8266063861347601e-02 0.0000000000000000e+00  1.6898511247936979e-01 6.7209921912420506e-02 0.0000000000000000e+00  1.6918045404878965e-01 5.4753267129539637e-02 0.0000000000000000e+00  1.6787055570214329e-01 4.1836950876785857e-02 0.0000000000000000e+00  1.6544893011487438e-01 2.9005018681269409e-02 0.0000000000000000e+00  1.6201588851550738e-01 1.6560339725319506e-02 0.0000000000000000e+00  1.5756671465036562e-01 4.7195621033162133e-03 0.0000000000000000e+00  1.5202442874772579e-01 -6.3123903698057808e-03 0.0000000000000000e+00  1.4526730104845870e-01 -1.6302885688842167e-02 0.0000000000000000e+00  1.3714968021832916e-01 -2.4964807386627388e-02 0.0000000000000000e+00  1.2751538233920226e-01 -3.1943186002996296e-02 0.0000000000000000e+00  1.1623040792790303e-01 -3.6816139955468286e-02 0.0000000000000000e+00  1.0316450077384301e-01 -3.9142157539471666e-02 0.0000000000000000e+00  8.8495182636307068e-02 -3.8619698704994952e-02 0.0000000000000000e+00  7.2263639625308254e-02 -3.5646675169445183e-02 0.0000000000000000e+00  5.7398425050641216e-02 -3.4418198465518239e-02 0.0000000000000000e+00  4.8991468696477213e-02 -4.7647085941410837e-02 0.0000000000000000e+00  1.9000000000000003e-01 0.0000000000000000e+00 0.0000000000000000e+00  2.2850847080282022e-01 8.8066856596857451e-02 0.0000000000000000e+00  2.5898657727079505e-01 1.2723770978804103e-01 0.0000000000000000e+00  2.8496046211881032e-01 1.3779509232460396e-01 0.0000000000000000e+00  2.9893036316581989e-01 1.3161091517506091e-01 0.0000000000000000e+00  3.0723546006311775e-01 1.1675246015885765e-01 0.0000000000000000e+00  3.1080300185308196e-01 9.7540849862788548e-02 0.0000000000000000e+00  3.1097800996544522e-01 7.6332008365678078e-02 0.0000000000000000e+00  3.0852171675279849e-01 5.4525519386382747e-02 0.0000000000000000e+00  3.0378734380873268e-01 3.2965213429496008e-02 0.0000000000000000e+00  2.9692865541527352e-01 1.2235821662783242e-02 0.0000000000000000e+00  2.8795392927185659e-01 -7.1849637674200042e-03 0.0000000000000000e+00  2.7678876830280286e-01 -2.4836515518793213e-02 0.0000000000000000e+00  2.6332109506264056e-01 -4.0224381685038717e-02 0.0000000000000000e+00  2.4744254279044431e-01 -5.2804677908272597e-02 0.0000000000000000e+00  2.2911191090688382e-01 -6.2018004697832640e-02 0.0000000000000000e+00  2.0839828958096593e-01 -6.7420473054740762e-02 0.0000000000000000e+00  1.8576364417775257e-01 -6.9020114827283013e-02 0.0000000000000000e+00  1.6155530952073047e-01 -6.8141132758811368e-02 0.0000000000000000e+00  1.3768755360866319e-01 -6.9135276015471828e-02 0.0000000000000000e+00  1.1617107290569642e-01 -8.1048438655817540e-02 0.0000000000000000e+00  2.7750000000000002e-01 0.0000000000000000e+00 0.0000000000000000e+00  3.1536146497422712e-01 9.5700422999113036e-02 0.0000000000000000e+00  3.5173645010487048e-01 1.4710847674952215e-01 0.0000000000000000e+00  3.8487908209923205e-01 1.6623974248671960e-01 0.0000000000000000e+00  4.0629121742394497e-01 1.6452478670197707e-01 0.0000000000000000e+00  4.2075551564914493e-01 1.5020028227656843e-01 0.0000000000000000e+00  4.2878786028599786e-01 1.2851782622126809e-01 0.0000000000000000e+00  4.3192056062245815e-01 1.0292052355218172e-01 0.0000000000000000e+00  4.3102292076229531e-01 7.5593448267116600e-02 0.0000000000000000e+00  4.2664212361333625e-01 4.7959719710073852e-02 0.0000000000000000e+00  4.1909488220529317e-01 2.1019383840380480e-02 0.0000000000000000e+00  4.0852770635854380e-01 -4.4528295722952053e-03 0.0000000000000000e+00  3.9499029858864215e-01 -2.7781293441191655e-02 0.0000000000000000e+00  3.7849237123067242e-01 -4.8322193810402161e-02 0.0000000000000000e+00  3.5905933546085478e-01 -6.5449854852448530e-02 0.0000000000000000e+00  3.3680340704718037e-01 -7.8612581789334057e-02 0.0000000000000000e+00  3.1195249416729937e-01 -8.7495728142373275e-02 0.0000000000000000e+00  2.8502807742829728e-01 -9.2364715055907182e-02 0.0000000000000000e+00  2.5612320349437262e-01 -9.4638933067965822e-02 0.0000000000000000e+00  2.2593136909008141e-01 -9.7726207109845545e-02 0.0000000000000000e+00  1.9554758995908303e-01 -1.0698255772939835e-01 0.0000000000000000e+00  3.6000000000000004e-01 0.0000000000000000e+00 0.0000000000000000e+00  3.9565370390499505e-01 9.6589182380275543e-02 0.0000000000000000e+00  4.3341209869417957e-01 1.5378050920686454e-01 0.0000000000000000e+00  4.6986236073418330e-01 1.7934405385776847e-01 0.0000000000000000e+00  4.9623812807118145e-01 1.8253560117534190e-01 0.0000000000000000e+00  5.1558899653330303e-01 1.7065444205114833e-01 0.0000000000000000e+00  5.2791032846498087e-01 1.4917354840492356e-01 0.0000000000000000e+00  5.3443934284847661e-01 1.2202857541766683e-01 0.0000000000000000e+00  5.3593320509729159e-01 9.1920541032422962e-02 0.0000000000000000e+00  5.3299500793545684e-01 6.0740497500660552e-02 0.0000000000000000e+00  5.2603080185244022e-01 2.9855493464530328e-02 0.0000000000000000e+00  5.1530467684478998e-01 3.1257599277066141e-04 0.0000000000000000e+00  5.0099486201992449e-01 -2.7024325876585511e-02 0.0000000000000000e+00  4.8324621892280917e-01 -5.1399768933699616e-02 0.0000000000000000e+00  4.6222102665160497e-01 -7.2150658985331434e-02 0.0000000000000000e+00  4.3815255515725149e-01 -8.8758952942316199e-02 0.0000000000000000e+00  4.1133600947952365e-01 -1.0098964626977046e-01 0.0000000000000000e+00  3.8221090462363966e-01 -1.0912904072998433e-01 0.0000000000000000e+00  3.5058438754456067e-01 -1.1428781024641509e-01 0.0000000000000000e+00  3.1652858587956362e-01 -1.1867861367967725e-01 0.0000000000000000e+00  2.8067664854678531e-01 -1.2542474257675917e-01 0.0000000000000000e+00  4.3749999999999994e-01 0.0000000000000000e+00 0.0000000000000000e+00  4.7018246485174209e-01 9.3698440529464619e-02 0.0000000000000000e+00  5.0707879187808780e-01 1.5297612946953335e-01 0.0000000000000000e+00  5.4438870609799372e-01 1.8264961652360728e-01 0.0000000000000000e+00  5.7351806700638386e-01 1.8993196672104137e-01 0.0000000000000000e+00  5.9626350000946648e-01 1.8109447561576825e-01 0.0000000000000000e+00  6.1212335552080810e-01 1.6128492644603629e-01 0.0000000000000000e+00  6.2186465410115699e-01 1.3447095051129546e-01 0.0000000000000000e+00  6.2602135111042900e-01 1.0359892595600566e-01 0.0000000000000000e+00  6.2512037465086345e-01 7.0853626786456708e-02 0.0000000000000000e+00  6.1957115952608077e-01 3.7868386057112138e-02 0.0000000000000000e+00  6.0970060147797212e-01 5.9040281551173447e-03 0.0000000000000000e+00  5.9577925446972513e-01 -2.4025064952106514e-02 0.0000000000000000e+00  5.7805864491570302e-01 -5.1076375811511837e-02 0.0000000000000000e+00  5.5680445632693742e-01 -7.4556467279370278e-02 0.0000000000000000e+00  5.3232467685792395e-01 -9.3953969101792503e-02 0.0000000000000000e+00  5.0492992141951210e-01 -1.0902748276775491e-01 0.0000000000000000e+00  4.7496298074563870e-01 -1.1993850904618493e-01 0.0000000000000000e+00  4.4207992278256070e-01 -1.2737063456849979e-01 0.0000000000000000e+00  4.0608343148607956e-01 -1.3255038392222271e-01 0.0000000000000000e+00  3.6749920320197882e-01 -1.3714183370225472e-01 0.0000000000000000e+00  5.1000000000000001e-01 0.0000000000000000e+00 0.0000000000000000e+00  5.3941923516790224e-01 8.8811075054189836e-02 0.0000000000000000e+00  5.7430079798250100e-01 1.4771974816312253e-01 0.0000000000000000e+00  6.1091024416027662e-01 1.7953422171915659e-01 0.0000000000000000e+00  6.4114962860527192e-01 1.8989463845628068e-01 0.0000000000000000e+00  6.6597332102837792e-01 1.8404852004879924e-01 0.0000000000000000e+00  6.8446878240407849e-01 1.6656895637307731e-01 0.0000000000000000e+00  6.9695125710683681e-01 1.4122032299191303e-01 0.0000000000000000e+00  7.0368770990671115e-01 1.1097444348694595e-01 0.0000000000000000e+00  7.0504713350296466e-01 7.8138833204315278e-02 0.0000000000000000e+00  7.0137555634284410e-01 4.4500198246276094e-02 0.0000000000000000e+00  6.9300303305186495e-01 1.1460174934140728e-02 0.0000000000000000e+00  6.8024342048713637e-01 -1.9860149239698470e-02 0.0000000000000000e+00  6.6341211003715006e-01 -4.8551099611124304e-02 0.0000000000000000e+00  6.4283824013297985e-01 -7.3884505356738003e-02 0.0000000000000000e+00  6.1887015968001979e-01 -9.5322969564531332e-02 0.0000000000000000e+00  5.9181949331081529e-01 -1.1256012678660028e-01 0.0000000000000000e+00  5.6196848180326098e-01 -1.2557569575540475e-01 0.0000000000000000e+00  5.2894588035548329e-01 -1.3465051650695903e-01 0.0000000000000000e+00  4.9249575937242551e-01 -1.4027028794561935e-01 0.0000000000000000e+00  4.5317266457666955e-01 -1.4314770034764696e-01 0.0000000000000000e+00  5.7750000000000001e-01 0.0000000000000000e+00 0.0000000000000000e+00  6.0361805372502120e-01 8.2846361761296644e-02 0.0000000000000000e+00  6.3589352784878983e-01 1.3976444337408944e-01 0.0000000000000000e+00  6.7084712542908997e-01 1.7224774327735201e-01 0.0000000000000000e+00  7.0106750471545909e-01 1.8471338114319957e-01 0.0000000000000000e+00  7.2692518065246592e-01 1.8148073411244944e-01 0.0000000000000000e+00  7.4721640140116774e-01 1.6651149030681192e-01 0.0000000000000000e+00  7.6188172965952394e-01 1.4324515081661832e-01 0.0000000000000000e+00  7.7092152687728399e-01 1.1452440831240941e-01 0.0000000000000000e+00  7.7451632361007572e-01 8.2647975517757447e-02 0.0000000000000000e+00  7.7290614932183144e-01 4.9454575578778505e-02 0.0000000000000000e+00  7.6637615014838689e-01 1.6414749744903267e-02 0.0000000000000000e+00  7.5523866887623292e-01 -1.5288192850757823e-02 0.0000000000000000e+00  7.3983223309061796e-01 -4.4697910705901643e-02 0.0000000000000000e+00  7.2051568734367533e-01 -7.1050255371461618e-02 0.0000000000000000e+00  6.9765705887112062e-01 -9.3762899403176475e-02 0.0000000000000000e+00  6.7157235195117893e-01 -1.1244017102570478e-01 0.0000000000000000e+00  6.4252520083768272e-01 -1.2687879835797916e-01 0.0000000000000000e+00  6.1020199178535306e-01 -1.3702899736749191e-01 0.0000000000000000e+00  5.7440440410579130e-01 -1.4284786569116653e-01 0.0000000000000000e+00  5.3576169749271307e-01 -1.4443451204183747e-01 0.0000000000000000e+00  6.4000000000000012e-01 0.0000000000000000e+00 0.0000000000000000e+00  6.6290667179070595e-01 7.6326207167676532e-02 0.0000000000000000e+00  6.9231558953646322e-01 1.3020542590412551e-01 0.0000000000000000e+00  7.2507322069219338e-01 1.6226849614196157e-01 0.0000000000000000e+00  7.5453091243676618e-01 1.7598116248640880e-01 0.0000000000000000e+00  7.8064607515156392e-01 1.7487748851044682e-01 0.0000000000000000e+00  8.0203398693802652e-01 1.6233973302197102e-01 0.0000000000000000e+00  8.1833919589670645e-01 1.4142898244239313e-01 0.0000000000000000e+00  8.2932425141861821e-01 1.1477241178743773e-01 0.0000000000000000e+00  8.3498167970982018e-01 8.4569731800780354e-02 0.0000000000000000e+00  8.3542437370422762e-01 5.2631027464833988e-02 0.0000000000000000e+00  8.3086165321859107e-01 2.0433880386972674e-02 0.0000000000000000e+00  8.2157086501940546e-01 -1.0817675741913016e-02 0.0000000000000000e+00  8.0788213606814752e-01 -4.0143105107997193e-02 0.0000000000000000e+00  7.9015962706289333e-01 -6.6748880678589570e-02 0.0000000000000000e+00  7.6877964758716411e-01 -9.0005204943902989e-02 0.0000000000000000e+00  7.4407049822877658e-01 -1.0942842668374797e-01 0.0000000000000000e+00  7.1630966071106816e-01 -1.2465890817922720e-01 0.0000000000000000e+00  6.8529047438917434e-01 -1.3539729482623322e-01 0.0000000000000000e+00  6.5092974177839658e-01 -1.4124147346402177e-01 0.0000000000000000e+00  6.1393853236371643e-01 -1.4190393132428056e-01 0.0000000000000000e+00  6.9750000000000012e-01 0.0000000000000000e+00 0.0000000000000000e+00  7.1735870690461201e-01 6.9561964107857893e-02 0.0000000000000000e+00  7.4384489050874902e-01 1.1972827453647400e-01 0.0000000000000000e+00  7.7414136346482576e-01 1.5057100338887774e-01 0.0000000000000000e+00  8.0237297505647576e-01 1.6481788408373543e-01 0.0000000000000000e+00  8.2819950024673195e-01 1.6535235114017666e-01 0.0000000000000000e+00  8.5013711013132909e-01 1.5503285766486849e-01 0.0000000000000000e+00  8.6760331656130540e-01 1.3653643156938328e-01 0.0000000000000000e+00  8.8016257301926493e-01 1.1223382160498759e-01 0.0000000000000000e+00  8.8763470323637639e-01 8.4168243112552998e-02 0.0000000000000000e+00  8.9000122859394792e-01 5.4063400552168253e-02 0.0000000000000000e+00  8.8738019197106766e-01 2.3355151996867139e-02 0.0000000000000000e+00  8.7999291818102787e-01 -6.7680995116555865e-03 0.0000000000000000e+00  8.6814021416427489e-01 -3.5325204298361140e-02 0.0000000000000000e+00  8.5217575758658459e-01 -6.1506893246593912e-02 0.0000000000000000e+00  8.3247807523639528e-01 -8.4645897174762244e-02 0.0000000000000000e+00  8.0939444144952033e-01 -1.0418734977213069e-01 0.0000000000000000e+00  7.8323666998609531e-01 -1.1965306323198999e-01 0.0000000000000000e+00  7.5392813559744110e-01 -1.3056946852355900e-01 0.0000000000000000e+00  7.2152339740624660e-01 -1.3630571861302443e-01 0.0000000000000000e+00  6.8680533703851399e-01 -1.3634283880836373e-01 0.0000000000000000e+00  7.5000000000000000e-01 0.0000000000000000e+00 0.0000000000000000e+00  7.6701893629632201e-01 6.2737778332516425e-02 0.0000000000000000e+00  7.9065488023890951e-01 1.0876526897787042e-01 0.0000000000000000e+00  8.1840958192777646e-01 1.3780520717005970e-01 0.0000000000000000e+00  8.4515510267195526e-01 1.5201025371375201e-01 0.0000000000000000e+00  8.7033076764478801e-01 1.5372837764896141e-01 0.0000000000000000e+00  8.9241023015260701e-01 1.4535790951422906e-01 0.0000000000000000e+00  9.1064071183113671e-01 1.2921015007306541e-01 0.0000000000000000e+00  9.2442773306873660e-01 1.0738557009640226e-01 0.0000000000000000e+00  9.3344025325170110e-01 8.1738949214287426e-02 0.0000000000000000e+00  9.3753517785371820e-01 5.3869665221759851e-02 0.0000000000000000e+00  9.3673524908390393e-01 2.5135561103750911e-02 0.0000000000000000e+00  9.3119552594797739e-01 -3.3208480980433447e-03 0.0000000000000000e+00  9.2117582101204909e-01 -3.0540926158690664e-02 0.0000000000000000e+00  9.0701024673907227e-01 -5.5717620650833209e-02 0.0000000000000000e+00  8.8907637121942407e-01 -7.8163702171815688e-02 0.0000000000000000e+00  8.6774426091910972e-01 -9.7277423673516036e-02 0.0000000000000000e+00  8.4337049378191231e-01 -1.1250211630111656e-01 0.0000000000000000e+00  8.1601409162441008e-01 -1.2325489373851829e-01 0.0000000000000000e+00  7.8586971316847509e-01 -1.2877513621352643e-01 0.0000000000000000e+00  7.5377567629228992e-01 -1.2841972614774982e-01 0.0000000000000000e+00  7.9749999999999999e-01 0.0000000000000000e+00 0.0000000000000000e+00  8.1191501506481334e-01 5.5959745653911826e-02 0.0000000000000000e+00  8.3285623781147056e-01 9.7588121695326435e-02 0.0000000000000000e+00  8.5811430336376027e-01 1.2440408484716362e-01 0.0000000000000000e+00  8.8326033048153563e-01 1.3810918196045124e-01 0.0000000000000000e+00  9.0756542899518777e-01 1.4061130527709881e-01 0.0000000000000000e+00  9.2949814055537738e-01 1.3391001310314263e-01 0.0000000000000000e+00  9.4817963989035492e-01 1.1997917598707099e-01 0.0000000000000000e+00  9.6289094785015195e-01 1.0065159827374047e-01 0.0000000000000000e+00  9.7317377684139594e-01 7.7579307281849405e-02 0.0000000000000000e+00  9.7877298834946735e-01 5.2214203771738646e-02 0.0000000000000000e+00  9.7961965164608966e-01 2.5810484624018734e-02 0.0000000000000000e+00  9.7580035407559007e-01 -5.5936683694350641e-04 0.0000000000000000e+00  9.6752921804193903e-01 -2.5980560906399223e-02 0.0000000000000000e+00  9.5511654693485049e-01 -4.9667794247113664e-02 0.0000000000000000e+00  9.3893734030304909e-01 -7.0934680976323577e-02 0.0000000000000000e+00  9.1938558217823074e-01 -8.9159288692654784e-02 0.0000000000000000e+00  8.9686584351639653e-01 -1.0374429422740310e-01 0.0000000000000000e+00  8.7156757138319496e-01 -1.1405124648653321e-01 0.0000000000000000e+00  8.4381657953343547e-01 -1.1926411709543740e-01 0.0000000000000000e+00  8.1448923685171970e-01 -1.1869033041889296e-01 0.0000000000000000e+00  8.3999999999999997e-01 0.0000000000000000e+00 0.0000000000000000e+00  8.5206426085592346e-01 4.9285203749505034e-02 0.0000000000000000e+00  8.7052063953436531e-01 8.6364081849424498e-02 0.0000000000000000e+00  8.9341359160272815e-01 1.1065376730198863e-01 0.0000000000000000e+00  9.1695252778922742e-01 1.2349905732669560e-01 0.0000000000000000e+00  9.4027658352401733e-01 1.2644495445536882e-01 0.0000000000000000e+00  9.6187242406301376e-01 1.2114692885457039e-01 0.0000000000000000e+00  9.8076869779962161e-01 1.0927266920356675e-01 0.0000000000000000e+00  9.9615065732204888e-01 9.2398738079357778e-02 0.0000000000000000e+00  1.0074553477914598e+00 7.1971069663940415e-02 0.0000000000000000e+00  1.0143305949931116e+00 4.9281461313192096e-02 0.0000000000000000e+00  1.0166240058560245e+00 2.5463258042970390e-02 0.0000000000000000e+00  1.0143567996382374e+00 1.5002674931197829e-03 0.0000000000000000e+00  1.0076975146794327e+00 -2.1755256294505001e-02 0.0000000000000000e+00  9.9693167575662445e-01 -4.3558799697773383e-02 0.0000000000000000e+00  9.8243098421136432e-01 -6.3245965979362537e-02 0.0000000000000000e+00  9.6461249012918648e-01 -8.0200557810932591e-02 0.0000000000000000e+00  9.4392732870914520e-01 -9.3818146558778626e-02 0.0000000000000000e+00  9.2068395341920062e-01 -1.0344817234625783e-01 0.0000000000000000e+00  8.9532467062626897e-01 -1.0827463097176765e-01 0.0000000000000000e+00  8.6874819699404615e-01 -1.0760752076574175e-01 0.0000000000000000e+00  8.7749999999999995e-01 0.0000000000000000e+00 0.0000000000000000e+00  8.8747757398080640e-01 4.2740561210114200e-02 0.0000000000000000e+00  9.0369488032492473e-01 7.5191532380153275e-02 0.0000000000000000e+00  9.2441405840335444e-01 9.6740002284013527e-02 0.0000000000000000e+00  9.4641494510020718e-01 1.0844577553978105e-01 0.0000000000000000e+00  9.6873069882582397e-01 1.1155250959698261e-01 0.0000000000000000e+00  9.8987920096991633e-01 1.0741835536165560e-01 0.0000000000000000e+00  1.0088215915677980e+00 9.7435086239212543e-02 0.0000000000000000e+00  1.0246705617333494e+00 8.2938261010608694e-02 0.0000000000000000e+00  1.0367787506842085e+00 6.5170787032110461e-02 0.