<?xml version="1.0"?>
<VTKFile type="UnstructuredGrid"  version="0.1"  >
<UnstructuredGrid>
<Piece  NumberOfPoints="441" NumberOfCells="800">
<Points>
<DataArray  type="Float64"  NumberOfComponents="3"  format="ascii">0 0 0  0.05 0 0  0.1 0 0  0.15 0 0  0.2 0 0  0.25 0 0  0.3 0 0  0.35 0 0  0.4 0 0  0.45 0 0  0.5 0 0  0.55 0 0  0.6 0 0  0.65 0 0  0.7 0 0  0.75 0 0  0.8 0 0  0.85 0 0  0.9 0 0  0.95 0 0  1 0 0  0 0.05 0  0.05 0.05 0  0.1 0.05 0  0.15 0.05 0  0.2 0.05 0  0.25 0.05 0  0.3 0.05 0  0.35 0.05 0  0.4 0.05 0  0.45 0.05 0  0.5 0.05 0  0.55 0.05 0  0.6 0.05 0  0.65 0.05 0  0.7 0.05 0  0.75 0.05 0  0.8 0.05 0  0.85 0.05 0  0.9 0.05 0  0.95 0.05 0  1 0.05 0  0 0.1 0  0.05 0.1 0  0.1 0.1 0  0.15 0.1 0  0.2 0.1 0  0.25 0.1 0  0.3 0.1 0  0.35 0.1 0  0.4 0.1 0  0.45 0.1 0  0.5 0.1 0  0.55 0.1 0  0.6 0.1 0  0.65 0.1 0  0.7 0.1 0  0.75 0.1 0  0.8 0.1 0  0.85 0.1 0  0.9 0.1 0  0.95 0.1 0  1 0.1 0  0 0.15 0  0.05 0.15 0  0.1 0.15 0  0.15 0.15 0  0.2 0.15 0  0.25 0.15 0  0.3 0.15 0  0.35 0.15 0  0.4 0.15 0  0.45 0.15 0  0.5 0.15 0  0.55 0.15 0  0.6 0.15 0  0.65 0.15 0  0.7 0.15 0  0.75 0.15 0  0.8 0.15 0  0.85 0.15 0  0.9 0.15 0  0.95 0.15 0  1 0.15 0  0 0.2 0  0.05 0.2 0  0.1 0.2 0  0.15 0.2 0  0.2 0.2 0  0.25 0.2 0  0.3 0.2 0  0.35 0.2 0  0.4 0.2 0  0.45 0.2 0  0.5 0.2 0  0.55 0.2 0  0.6 0.2 0  0.65 0.2 0  0.7 0.2 0  0.75 0.2 0  0.8 0.2 0  0.85 0.2 0  0.9 0.2 0  0.95 0.2 0  1 0.2 0  0 0.25 0  0.05 0.25 0  0.1 0.25 0  0.15 0.25 0  0.2 0.25 0  0.25 0.25 0  0.3 0.25 0  0.35 0.25 0  0.4 0.25 0  0.45 0.25 0  0.5 0.25 0  0.55 0.25 0  0.6 0.25 0  0.65 0.25 0  0.7 0.25 0  0.75 0.25 0  0.8 0.25 0  0.85 0.25 0  0.9 0.25 0  0.95 0.25 0  1 0.25 0  0 0.3 0  0.05 0.3 0  0.1 0.3 0  0.15 0.3 0  0.2 0.3 0  0.25 0.3 0  0.3 0.3 0  0.35 0.3 0  0.4 0.3 0  0.45 0.3 0  0.5 0.3 0  0.55 0.3 0  0.6 0.3 0  0.65 0.3 0  0.7 0.3 0  0.75 0.3 0  0.8 0.3 0  0.85 0.3 0  0.9 0.3 0  0.95 0.3 0  1 0.3 0  0 0.35 0  0.05 0.35 0  0.1 0.35 0  0.15 0.35 0  0.2 0.35 0  0.25 0.35 0  0.3 0.35 0  0.35 0.35 0  0.4 0.35 0  0.45 0.35 0  0.5 0.35 0  0.55 0.35 0  0.6 0.35 0  0.65 0.35 0  0.7 0.35 0  0.75 0.35 0  0.8 0.35 0  0.85 0.35 0  0.9 0.35 0  0.95 0.35 0  1 0.35 0  0 0.4 0  0.05 0.4 0  0.1 0.4 0  0.15 0.4 0  0.2 0.4 0  0.25 0.4 0  0.3 0.4 0  0.35 0.4 0  0.4 0.4 0  0.45 0.4 0  0.5 0.4 0  0.55 0.4 0  0.6 0.4 0  0.65 0.4 0  0.7 0.4 0  0.75 0.4 0  0.8 0.4 0  0.85 0.4 0  0.9 0.4 0  0.95 0.4 0  1 0.4 0  0 0.45 0  0.05 0.45 0  0.1 0.45 0  0.15 0.45 0  0.2 0.45 0  0.25 0.45 0  0.3 0.45 0  0.35 0.45 0  0.4 0.45 0  0.45 0.45 0  0.5 0.45 0  0.55 0.45 0  0.6 0.45 0  0.65 0.45 0  0.7 0.45 0  0.75 0.45 0  0.8 0.45 0  0.85 0.45 0  0.9 0.45 0  0.95 0.45 0  1 0.45 0  0 0.5 0  0.05 0.5 0  0.1 0.5 0  0.15 0.5 0  0.2 0.5 0  0.25 0.5 0  0.3 0.5 0  0.35 0.5 0  0.4 0.5 0  0.45 0.5 0  0.5 0.5 0  0.55 0.5 0  0.6 0.5 0  0.65 0.5 0  0.7 0.5 0  0.75 0.5 0  0.8 0.5 0  0.85 0.5 0  0.9 0.5 0  0.95 0.5 0  1 0.5 0  0 0.55 0  0.05 0.55 0  0.1 0.55 0  0.15 0.55 0  0.2 0.55 0  0.25 0.55 0  0.3 0.55 0  0.35 0.55 0  0.4 0.55 0  0.45 0.55 0  0.5 0.55 0  0.55 0.55 0  0.6 0.55 0  0.65 0.55 0  0.7 0.55 0  0.75 0.55 0  0.8 0.55 0  0.85 0.55 0  0.9 0.55 0  0.95 0.55 0  1 0.55 0  0 0.6 0  0.05 0.6 0  0.1 0.6 0  0.15 0.6 0  0.2 0.6 0  0.25 0.6 0  0.3 0.6 0  0.35 0.6 0  0.4 0.6 0  0.45 0.6 0  0.5 0.6 0  0.55 0.6 0  0.6 0.6 0  0.65 0.6 0  0.7 0.6 0  0.75 0.6 0  0.8 0.6 0  0.85 0.6 0  0.9 0.6 0  0.95 0.6 0  1 0.6 0  0 0.65 0  0.05 0.65 0  0.1 0.65 0  0.15 0.65 0  0.2 0.65 0  0.25 0.65 0  0.3 0.65 0  0.35 0.65 0  0.4 0.65 0  0.45 0.65 0  0.5 0.65 0  0.55 0.65 0  0.6 0.65 0  0.65 0.65 0  0.7 0.65 0  0.75 0.65 0  0.8 0.65 0  0.85 0.65 0  0.9 0.65 0  0.95 0.65 0  1 0.65 0  0 0.7 0  0.05 0.7 0  0.1 0.7 0  0.15 0.7 0  0.2 0.7 0  0.25 0.7 0  0.3 0.7 0  0.35 0.7 0  0.4 0.7 0  0.45 0.7 0  0.5 0.7 0  0.55 0.7 0  0.6 0.7 0  0.65 0.7 0  0.7 0.7 0  0.75 0.7 0  0.8 0.7 0  0.85 0.7 0  0.9 0.7 0  0.95 0.7 0  1 0.7 0  0 0.75 0  0.05 0.75 0  0.1 0.75 0  0.15 0.75 0  0.2 0.75 0  0.25 0.75 0  0.3 0.75 0  0.35 0.75 0  0.4 0.75 0  0.45 0.75 0  0.5 0.75 0  0.55 0.75 0  0.6 0.75 0  0.65 0.75 0  0.7 0.75 0  0.75 0.75 0  0.8 0.75 0  0.85 0.75 0  0.9 0.75 0  0.95 0.75 0  1 0.75 0  0 0.8 0  0.05 0.8 0  0.1 0.8 0  0.15 0.8 0  0.2 0.8 0  0.25 0.8 0  0.3 0.8 0  0.35 0.8 0  0.4 0.8 0  0.45 0.8 0  0.5 0.8 0  0.55 0.8 0  0.6 0.8 0  0.65 0.8 0  0.7 0.8 0  0.75 0.8 0  0.8 0.8 0  0.85 0.8 0  0.9 0.8 0  0.95 0.8 0  1 0.8 0  0 0.85 0  0.05 0.85 0  0.1 0.85 0  0.15 0.85 0  0.2 0.85 0  0.25 0.85 0  0.3 0.85 0  0.35 0.85 0  0.4 0.85 0  0.45 0.85 0  0.5 0.85 0  0.55 0.85 0  0.6 0.85 0  0.65 0.85 0  0.7 0.85 0  0.75 0.85 0  0.8 0.85 0  0.85 0.85 0  0.9 0.85 0  0.95 0.85 0  1 0.85 0  0 0.9 0  0.05 0.9 0  0.1 0.9 0  0.15 0.9 0  0.2 0.9 0  0.25 0.9 0  0.3 0.9 0  0.35 0.9 0  0.4 0.9 0  0.45 0.9 0  0.5 0.9 0  0.55 0.9 0  0.6 0.9 0  0.65 0.9 0  0.7 0.9 0  0.75 0.9 0  0.8 0.9 0  0.85 0.9 0  0.9 0.9 0  0.95 0.9 0  1 0.9 0  0 0.95 0  0.05 0.95 0  0.1 0.95 0  0.15 0.95 0  0.2 0.95 0  0.25 0.95 0  0.3 0.95 0  0.35 0.95 0  0.4 0.95 0  0.45 0.95 0  0.5 0.95 0  0.55 0.95 0  0.6 0.95 0  0.65 0.95 0  0.7 0.95 0  0.75 0.95 0  0.8 0.95 0  0.85 0.95 0  0.9 0.95 0  0.95 0.95 0  1 0.95 0  0 1 0  0.05 1 0  0.1 1 0  0.15 1 0  0.2 1 0  0.25 1 0  0.3 1 0  0.35 1 0  0.4 1 0  0.45 1 0  0.5 1 0  0.55 1 0  0.6 1 0  0.65 1 0  0.7 1 0  0.75 1 0  0.8 1 0  0.85 1 0  0.9 1 0  0.95 1 0  1 1 0  </DataArray>
</Points>
<Cells>
[...]
<PointData  Scalars="u"> 
<DataArray  type="Float64"  Name="u"  format="ascii">1.3122900332761130e+01  1.0668733697049262e+01  9.3445810396088529e+00  7.8843915362975974e+00  6.6040979209497532e+00  5.5026201673746487e+00  4.5153975713173269e+00  3.6263217868915341e+00  2.8122094397482917e+00  2.0573126697293698e+00  1.3519630840836889e+00  6.9111791996748928e-01  7.4561758936747061e-02  -4.9257724942602610e-01  -9.9973917582018357e-01  -1.4271827508614183e+00  -1.7503935197766418e+00  -1.9203184783744367e+00  -1.8500699650028078e+00  -1.4708944455796313e+00  4.8103006505398432e-01  1.0476667682269634e+01  9.4342024083718385e+00  8.6089796691779714e+00  7.2336698032514954e+00  6.1465840599219428e+00  5.1669542911575510e+00  4.2799810837354260e+00  3.4777978601733510e+00  2.7395525141685662e+00  2.0540174156888553e+00  1.4129652969905009e+00  8.1156975759105177e-01  2.4861920053331096e-01  -2.7321763176773856e-01  -7.4678417576244427e-01  -1.1586745703810597e+00  -1.4914580000411519e+00  -1.7040318277047644e+00  -1.7918497081621976e+00  -1.5610544275382991e+00  -8.9499125218087638e-01  8.7658080063972879e+00  8.4098958065846556e+00  7.7632581552240572e+00  6.5633174014895008e+00  5.6774197071621826e+00  4.8170955010045375e+00  4.0351604132046148e+00  3.3199034017922582e+00  2.6560893775845029e+00  2.0367484905425326e+00  1.4552625339109333e+00  9.0767452148121974e-01  3.9248739600848592e-01  -8.9034464862299337e-02  -5.3248780608701141e-01  -9.2920552895078345e-01  -1.2680750337472639e+00  -1.5253471148211182e+00  -1.7077111384631596e+00  -1.7272601313173310e+00  -1.4320912778794110e+00  7.5709489822651674e+00  7.4281920946796891e+00  6.9181578495280753e+00  5.9489772051940584e+00  5.2160930203306721e+00  4.4680275883139711e+00  3.7884959327897922e+00  3.1556907144903716e+00  2.5630038303899103e+00  2.0058587794971428e+00  1.4794561801360249e+00  9.8094088549284109e-01  5.0892293609761097e-01  6.3847263025490486e-02  -3.5187420727976432e-01  -7.3305676378538176e-01  -1.0743485122121335e+00  -1.3607847766781878e+00  -1.6131996649160802e+00  -1.7723645390630769e+00  -1.6855139420973906e+00  6.5685686834642478e+00  6.5389375144019768e+00  6.1717365700298403e+00  5.3856751267358280e+00  4.7686886637109946e+00  4.1306089566064683e+00  3.5445367568021093e+00  2.9882493557439305e+00  2.4622126142066119e+00  1.9628203133341422e+00  1.4872538397587463e+00  1.0336707321191447e+00  6.0101982061250359e-01  1.8935067124373078e-01  -2.0020884132129538e-01  -5.6492922275233626e-01  -9.0301744171714393e-01  -1.2056666482495630e+00  -1.4990106615534686e+00  -1.7393715118323279e+00  -1.7883944195739718e+00  5.7266635352315447e+00  5.7694198567807611e+00  5.5101217215767555e+00  4.8647519300477473e+00  4.3513290520627894e+00  3.8126420831883490e+00  3.3079208328451233e+00  2.8216312842002695e+00  2.3565663004115591e+00  1.9100798311505640e+00  1.4810939190343755e+00  1.0686005031439625e+00  6.7202544064159797e-01  2.9132345129440151e-01  -7.3100697620650829e-02  -4.2002518276531187e-01  -7.4974820607048009e-01  -1.0572548100160710e+00  -1.3696360360351805e+00  -1.6538366839786125e+00  -1.7837390199500220e+00  5.0213291181481559e+00  5.1043069606200993e+00  4.9230186185120042e+00  4.3941548956746939e+00  3.9702996865750722e+00  3.5157999273200633e+00  3.0824557526841301e+00  2.6591774380982591e+00  2.2488801951301260e+00  1.8503676734556544e+00  1.4637312239812459e+00  1.0887032375296062e+00  7.2523712362639581e-01  3.7339932269494408e-01  3.3299782332391420e-02  -2.9465448843802411e-01  -6.1180671610062187e-01  -9.1541027133479647e-01  -1.2312906209210308e+00  -1.5336729716814519e+00  -1.7097527570867883e+00  4.4267908460347476e+00  4.5295325148469860e+00  4.4055486966820885e+00  3.9736157210960528e+00  3.6246072163363454e+00  3.2419671213339427e+00  2.8712356924080762e+00  2.5034467913898881e+00  2.1418409953543973e+00  1.7864102597038913e+00  1.4379686559543992e+00  1.0969492170858437e+00  7.6381465607213928e-01  4.3888424609539023e-01  1.2226826586633373e-01  -1.8596143568190115e-01  -4.8751097975741675e-01  -7.8093644419108332e-01  -1.0896067562593503e+00  -1.3930758224351307e+00  -1.5924129144289274e+00  3.9238266234083414e+00  4.0334029194549670e+00  3.9511755735841665e+00  3.5999274734632642e+00  3.3135189360434016e+00  2.9923416810841363e+00  2.6757245417165652e+00  2.3563504725585664e+00  2.0377654752667431e+00  1.7206634586457745e+00  1.4064314675081115e+00  1.0961169421264954e+00  7.9065483627654098e-01  4.9070533713321329e-01  1.9656744040763463e-01  -9.1707556361554671e-02  -3.7576294917981085e-01  -6.5484140478090136e-01  -9.4930441119676423e-01  -1.2427604111783850e+00  -1.4501229913390239e+00  3.4975819979451908e+00  3.6056260855177751e+00  3.5534929769732098e+00  3.2697298705777125e+00  3.0356577915649727e+00  2.7667961125240939e+00  2.4966748399914871e+00  2.2193760220893282e+00  1.9385018897913397e+00  1.6552375418693845e+00  1.3714484690848581e+00  1.0886820095370644e+00  8.0831724795617088e-01  5.3139655796490215e-01  2.5851891875888527e-01  -1.0089247836659260e-02  -2.7575628593343016e-01  -5.3802382462166354e-01  -8.1407359892833964e-01  -1.0906890272618299e+00  -1.2961604026278919e+00  3.1362024321386226e+00  3.2374770505808730e+00  3.2067661177207181e+00  2.9796009633061891e+00  2.7892086965351894e+00  2.5647691075944357e+00  2.3344549160985952e+00  2.0935074850800230e+00  1.8454592351173518e+00  1.5918769986274965e+00  1.3349918318446587e+00  1.0767676550421446e+00  8.1899691128110441e-01  5.6311172595503067e-01  3.1006922344689447e-01  6.0383205708007988e-02  -1.8682377787421808e-01  -4.3115335036851071e-01  -6.8666381626820239e-01  -9.4268294165278510e-01  -1.1400833805940698e+00  2.8302196608676766e+00  2.9216859617970918e+00  2.9059689019928339e+00  2.7263073812804093e+00  2.5723030105765456e+00  2.3854747038401087e+00  2.1890795481071827e+00  1.9793541681519717e+00  1.7596987003134719e+00  1.5319687207537707e+00  1.2986767751054100e+00  1.0621421445861099e+00  8.2453050790795634e-01  5.8765240996499724e-01  3.5284369656903375e-01  1.2096049968299256e-01  -1.0836491923316993e-01  -3.3465302478270714e-01  -5.6903158618245209e-01  -8.0290423784931231e-01  -9.8871127514782431e-01  2.5720627523680371e+00  2.6522426713218397e+00  2.6467888982061205e+00  2.5069410763209845e+00  2.3831480241647363e+00  2.2280202034832266e+00  2.0603577410518938e+00  1.8772681751598517e+00  1.6819828975473428e+00  1.4765796587663838e+00  1.2637926526762422e+00  1.0462416543782691e+00  8.2642349517899261e-01  6.0650369965295658e-01  3.8819095887518401e-01  1.7270008215122842e-01  -3.9819089851687285e-02  -2.4872922409870160e-01  -4.6249874060600216e-01  -6.7424730512280506e-01  -8.4683000427292099e-01  2.3556813443922313e+00  2.4242192799565987e+00  2.4255883198089685e+00  2.3189592334698803e+00  2.2200997836270675e+00  2.0915042182256336e+00  1.9479832021042600e+00  1.7874114831806078e+00  1.6128369063599992e+00  1.4265118979393994e+00  1.2313449463912227e+00  1.0302081805924548e+00  8.2588814293816282e-01  6.2087286616153714e-01  4.1722054761643979e-01  2.1649516488097992e-01  1.9338697620868973e-02  -1.7341946563029101e-01  -3.6790066722900633e-01  -5.5865420150098510e-01  -7.1771890773389069e-01  2.1762571562757520e+00  2.2336106359364889e+00  2.2393417829751123e+00  2.1601868844839824e+00  2.0817010177781343e+00  1.9750725754141534e+00  1.8515943846492915e+00  1.7098178613720514e+00  1.5526070003584183e+00  1.3823530399836923e+00  1.2021010071202687e+00  1.0149331712791445e+00  8.2388457864900366e-01  6.3172767830022147e-01  4.4083559830783137e-01  2.5309462304862723e-01  6.9592115125043597e-02  -1.0864333228550530e-01  -2.8571582651018412e-01  -4.5736770236590013e-01  -6.0355402225642019e-01  2.0299800776788195e+00  2.0771972635749854e+00  2.0855707414999678e+00  2.0288020374368085e+00  1.9666960623798098e+00  1.8779521872378968e+00  1.7708187744765773e+00  1.6444410642010052e+00  1.5015082494726026e+00  1.3445226541446558e+00  1.1766351764928222e+00  1.0011002109713139e+00  8.2116077050925707e-01  6.3983247314294589e-01  4.5976141836158568e-01  2.8311807471347844e-01  1.1137597947293726e-01  -5.4247445831256874e-02  -2.1617326169839579e-01  -3.7113267277588041e-01  -5.0571957491678932e-01  1.9138798434949937e+00  1.9524280720212333e+00  1.9622823189192518e+00  1.9233131390893439e+00  1.8740334072758129e+00  1.7994712450752026e+00  1.7053035552563369e+00  1.5911911576392364e+00  1.4596636344179363e+00  1.3133122586630763e+00  1.1553681236658173e+00  9.8922297095808820e-01  8.1828820336346941e-01  6.4577956523915425e-01  4.7456957237459779e-01  3.0706834747845313e-01  1.4506800890441704e-01  -1.0047956746771728e-02  -1.5934316092027556e-01  -3.0035449001240278e-01  -4.2504811288772659e-01  1.8256526700041420e+00  1.8573333381511179e+00  1.8679207995024987e+00  1.8425356097241028e+00  1.8028649066478730e+00  1.7390723430127997e+00  1.6547385200913811e+00  1.5499635170763144e+00  1.4271365915231815e+00  1.2889195731160143e+00  1.1386016124090539e+00  9.7967949889647654e-01  8.1569439543296751e-01  6.5001824639575778e-01  4.8570095342309444e-01  3.2534340284628083e-01  1.7098278738472608e-01  2.4147047539345455e-02  -1.1518815706022813e-01  -2.4521438986164010e-01  -3.6200495917256786e-01  1.7636289965168561e+00  1.7904912540786728e+00  1.8012916972510331e+00  1.7855724727555156e+00  1.7525343953116470e+00  1.6963150819346069e+00  1.6188668502638257e+00  1.5206551186210053e+00  1.4039507211642350e+00  1.2714698732526155e+00  1.1265403266910736e+00  9.7273333471233081e-01  8.1368213729775063e-01  6.5287059511351320e-01  4.9347563584425985e-01  3.3823712960841534e-01  1.8936461783776040e-01  4.8504509023288976e-02  -8.3668165846295273e-02  -2.0580967151063337e-01  -3.1682827581715145e-01  1.7274476041270026e+00  1.7506415972529608e+00  1.7616487015271984e+00  1.7518074729265416e+00  1.7225954233100138e+00  1.6708992118662902e+00  1.5975110658631642e+00  1.5031961218358834e+00  1.3901233148107577e+00  1.2610524195674644e+00  1.1193300174958225e+00  9.6857322111451627e-01  8.1247000686795146e-01  6.5457173614612063e-01  4.9813156458665658e-01  3.4597483168945392e-01  2.0041037811320869e-01  6.3164248839802484e-02  -6.4670758819444771e-02  -1.8197322547275094e-01  -2.8957272200590400e-01  1.7114235007047198e+00  1.7376406725027655e+00  1.7484034913851678e+00  1.7407900663737172e+00  1.7127460930736091e+00  1.6625728374379456e+00  1.5905260590966921e+00  1.4974925934484311e+00  1.3856194518703842e+00  1.2576712169605651e+00  1.1170069068477275e+00  9.6725716295763353e-01  8.1212967161881078e-01  6.5519846579080254e-01  4.9974273953747783e-01  3.4861729461654939e-01  2.0416137380850921e-01  6.8140124047069317e-02  -5.8203058378143768e-02  -1.7400227325553075e-01  -2.8074819763693970e-01  </DataArray> 
</PointData> 
</Piece>
</UnstructuredGrid>
</VTKFile>