<?xml version="1.0"?>
<VTKFile type="UnstructuredGrid"  version="0.1"  >
<UnstructuredGrid>
<Piece  NumberOfPoints="21" NumberOfCells="20">
<Points>
<DataArray  type="Float64"  NumberOfComponents="3"  format="ascii">0 0 0  0.05 0 0  0.1 0 0  0.15 0 0  0.2 0 0  0.25 0 0  0.3 0 0  0.35 0 0  0.4 0 0  0.45 0 0  0.5 0 0  0.55 0 0  0.6 0 0  0.65 0 0  0.7 0 0  0.75 0 0  0.8 0 0  0.85 0 0  0.9 0 0  0.95 0 0  1 0 0  </DataArray>
</Points>
<Cells>
<DataArray  type="UInt32"  Name="connectivity"  format="ascii">0 1  1 2  2 3  3 4  4 5  5 6  6 7  7 8  8 9  9 10  10 11  11 12  12 13  13 14  14 15  15 16  16 17  17 18  18 19  19 20  </DataArray>
<DataArray  type="UInt32"  Name="offsets"  format="ascii">2 4 6 8 10 12 14 16 18 20 22 24 26 28 30 32 34 36 38 40 </DataArray>
<DataArray  type="UInt8"  Name="types"  format="ascii">3 3 3 3 3 3 3 3 3 3 3 3 3 3 3 3 3 3 3 3 </DataArray>
</Cells>
<PointData  Scalars="u"> 
<DataArray  type="Float64"  Name="u"  format="ascii">-2.1529804520809697e-04  2.5866786877173063e-02  5.9390349797771171e-02  8.9467808468830318e-02  1.1583490277231691e-01  1.3824777963883622e-01  1.5662459332527434e-01  1.7101492064829285e-01  1.8146171280613793e-01  1.8800260138857067e-01  1.9066381700367485e-01  1.8945619324000695e-01  1.8437436099810406e-01  1.7539769181253348e-01  1.6249340333918660e-01  1.4562159558215587e-01  1.2473677739051545e-01  9.9787036427811074e-02  7.0661626513460488e-02  3.6948916223530526e-02  -2.1529804520806309e-04  </DataArray> 
</PointData> 
</Piece>
</UnstructuredGrid>
</VTKFile>