<?xml version="1.0"?>
<VTKFile type="UnstructuredGrid"  version="0.1"  >
<UnstructuredGrid>
<Piece  NumberOfPoints="21" NumberOfCells="20">
<Points>
<DataArray  type="Float64"  NumberOfComponents="3"  format="ascii">0 0 0  0.05 0 0  0.1 0 0  0.15 0 0  0.2 0 0  0.25 0 0  0.3 0 0  0.35 0 0  0.4 0 0  0.45 0 0  0.5 0 0  0.55 0 0  0.6 0 0  0.65 0 0  0.7 0 0  0.75 0 0  0.8 0 0  0.85 0 0  0.9 0 0  0.95 0 0  1 0 0  </DataArray>
</Points>
<Cells>
<DataArray  type="UInt32"  Name="connectivity"  format="ascii">0 1  1 2  2 3  3 4  4 5  5 6  6 7  7 8  8 9  9 10  10 11  11 12  12 13  13 14  14 15  15 16  16 17  17 18  18 19  19 20  </DataArray>
<DataArray  type="UInt32"  Name="offsets"  format="ascii">2 4 6 8 10 12 14 16 18 20 22 24 26 28 30 32 34 36 38 40 </DataArray>
<DataArray  type="UInt8"  Name="types"  format="ascii">3 3 3 3 3 3 3 3 3 3 3 3 3 3 3 3 3 3 3 3 </DataArray>
</Cells>
<PointData  Scalars="u"> 
<DataArray  type="Float64"  Name="u"  format="ascii">-1.9933758683793304e-05  3.3333710429837550e-02  6.7275359048374922e-02  9.7534280865563427e-02  1.2377108090126586e-01  1.4597840792622163e-01  1.6414712273113172e-01  1.7830295661511664e-01  1.8846971898599826e-01  1.9466509877221627e-01  1.9690058595736626e-01  1.9518046857955021e-01  1.8950192243664740e-01  1.7985618961487837e-01  1.6623059431680909e-01  1.4861115005619061e-01  1.2698241008002759e-01  1.0132868231322383e-01  7.1610236154574278e-02  3.7695327708915607e-02  -1.9933758683755336e-05  </DataArray> 
</PointData> 
</Piece>
</UnstructuredGrid>
</VTKFile>