<?xml version="1.0"?>
<VTKFile type="UnstructuredGrid"  version="0.1"  >
<UnstructuredGrid>
<Piece  NumberOfPoints="21" NumberOfCells="20">
<Points>
<DataArray  type="Float64"  NumberOfComponents="3"  format="ascii">0 0 0  0.05 0 0  0.1 0 0  0.15 0 0  0.2 0 0  0.25 0 0  0.3 0 0  0.35 0 0  0.4 0 0  0.45 0 0  0.5 0 0  0.55 0 0  0.6 0 0  0.65 0 0  0.7 0 0  0.75 0 0  0.8 0 0  0.85 0 0  0.9 0 0  0.95 0 0  1 0 0  </DataArray>
</Points>
<Cells>
<DataArray  type="UInt32"  Name="connectivity"  format="ascii">0 1  1 2  2 3  3 4  4 5  5 6  6 7  7 8  8 9  9 10  10 11  11 12  12 13  13 14  14 15  15 16  16 17  17 18  18 19  19 20  </DataArray>
<DataArray  type="UInt32"  Name="offsets"  format="ascii">2 4 6 8 10 12 14 16 18 20 22 24 26 28 30 32 34 36 38 40 </DataArray>
<DataArray  type="UInt8"  Name="types"  format="ascii">3 3 3 3 3 3 3 3 3 3 3 3 3 3 3 3 3 3 3 3 </DataArray>
</Cells>
<PointData  Scalars="u"> 
<DataArray  type="Float64"  Name="u"  format="ascii">-3.3333333333525737e-06  3.5562408444627727e-02  6.9555162036585599e-02  9.9724120850343295e-02  1.2586110112245494e-01  1.4797488107588952e-01  1.6606531213592268e-01  1.8014672721884112e-01  1.9023244868603528e-01  1.9633211920763105e-01  1.9845187190745001e-01  1.9659392124875769e-01  1.9075667902864621e-01  1.8093549293664585e-01  1.6712381190776895e-01  1.4931458465224171e-01  1.2750009904259135e-01  1.0167271624806359e-01  7.1812242599762502e-02  3.7853448948879785e-02  -3.3333333333282181e-06  </DataArray> 
</PointData> 
</Piece>
</UnstructuredGrid>
</VTKFile>