<?xml version="1.0"?>
<VTKFile type="UnstructuredGrid"  version="0.1"  >
<UnstructuredGrid>
<Piece  NumberOfPoints="21" NumberOfCells="20">
<Points>
<DataArray  type="Float64"  NumberOfComponents="3"  format="ascii">0 0 0  0.05 0 0  0.1 0 0  0.15 0 0  0.2 0 0  0.25 0 0  0.3 0 0  0.35 0 0  0.4 0 0  0.45 0 0  0.5 0 0  0.55 0 0  0.6 0 0  0.65 0 0  0.7 0 0  0.75 0 0  0.8 0 0  0.85 0 0  0.9 0 0  0.95 0 0  1 0 0  </DataArray>
</Points>
<Cells>
<DataArray  type="UInt32"  Name="connectivity"  format="ascii">0 1  1 2  2 3  3 4  4 5  5 6  6 7  7 8  8 9  9 10  10 11  11 12  12 13  13 14  14 15  15 16  16 17  17 18  18 19  19 20  </DataArray>
<DataArray  type="UInt32"  Name="offsets"  format="ascii">2 4 6 8 10 12 14 16 18 20 22 24 26 28 30 32 34 36 38 40 </DataArray>
<DataArray  type="UInt8"  Name="types"  format="ascii">3 3 3 3 3 3 3 3 3 3 3 3 3 3 3 3 3 3 3 3 </DataArray>
</Cells>
<PointData  Scalars="u"> 
<DataArray  type="Float64"  Name="u"  format="ascii">-1.4740302439634833e-04  2.7559232298460877e-02  6.1208879217936066e-02  9.1394532302112072e-02  1.1776137899661572e-01  1.4014513779698828e-01  1.5848412672300738e-01  1.7282465464936167e-01  1.8320778621681794e-01  1.8966767910180732e-01  1.9222777879472119e-01  1.9089756018937315e-01  1.8567202203504898e-01  1.7653290965982327e-01  1.6345180860756350e-01  1.4639497214290484e-01  1.2532417478859856e-01  1.0019714418898508e-01  7.0919750312196245e-02  3.7152500045244563e-02  -1.4740302439630943e-04  </DataArray> 
</PointData> 
</Piece>
</UnstructuredGrid>
</VTKFile>