<?xml version="1.0"?>
<VTKFile type="UnstructuredGrid"  version="0.1"  >
<UnstructuredGrid>
<Piece  NumberOfPoints="21" NumberOfCells="20">
<Points>
<DataArray  type="Float64"  NumberOfComponents="3"  format="ascii">0 0 0  0.05 0 0  0.1 0 0  0.15 0 0  0.2 0 0  0.25 0 0  0.3 0 0  0.35 0 0  0.4 0 0  0.45 0 0  0.5 0 0  0.55 0 0  0.6 0 0  0.65 0 0  0.7 0 0  0.75 0 0  0.8 0 0  0.85 0 0  0.9 0 0  0.95 0 0  1 0 0  </DataArray>
</Points>
<Cells>
<DataArray  type="UInt32"  Name="connectivity"  format="ascii">0 1  1 2  2 3  3 4  4 5  5 6  6 7  7 8  8 9  9 10  10 11  11 12  12 13  13 14  14 15  15 16  16 17  17 18  18 19  19 20  </DataArray>
<DataArray  type="UInt32"  Name="offsets"  format="ascii">2 4 6 8 10 12 14 16 18 20 22 24 26 28 30 32 34 36 38 40 </DataArray>
<DataArray  type="UInt8"  Name="types"  format="ascii">3 3 3 3 3 3 3 3 3 3 3 3 3 3 3 3 3 3 3 3 </DataArray>
</Cells>
<PointData  Scalars="u"> 
<DataArray  type="Float64"  Name="u"  format="ascii">-4.9589407149514728e-05  3.1274290364743280e-02  6.5136705694719577e-02  9.5421235672137242e-02  1.2172655750440599e-01  1.4400898349933652e-01  1.6224468055764718e-01  1.7646828294897318e-01  1.8671153748971306e-01  1.9299878335267129e-01  1.9534614607103076e-01  1.9375982323996715e-01  1.8823604419650103e-01  1.7876244578626721e-01  1.6532066448280713e-01  1.4788993273143677e-01  1.2644710267301440e-01  1.0096802059394647e-01  7.1394100503804736e-02  3.7525748052146146e-02  -4.9589407149480813e-05  </DataArray> 
</PointData> 
</Piece>
</UnstructuredGrid>
</VTKFile>