<?xml version="1.0"?>
<VTKFile type="UnstructuredGrid"  version="0.1"  >
<UnstructuredGrid>
<Piece  NumberOfPoints="21" NumberOfCells="20">
<Points>
<DataArray  type="Float64"  NumberOfComponents="3"  format="ascii">0 0 0  0.05 0 0  0.1 0 0  0.15 0 0  0.2 0 0  0.25 0 0  0.3 0 0  0.35 0 0  0.4 0 0  0.45 0 0  0.5 0 0  0.55 0 0  0.6 0 0  0.65 0 0  0.7 0 0  0.75 0 0  0.8 0 0  0.85 0 0  0.9 0 0  0.95 0 0  1 0 0  </DataArray>
</Points>
<Cells>
<DataArray  type="UInt32"  Name="connectivity"  format="ascii">0 1  1 2  2 3  3 4  4 5  5 6  6 7  7 8  8 9  9 10  10 11  11 12  12 13  13 14  14 15  15 16  16 17  17 18  18 19  19 20  </DataArray>
<DataArray  type="UInt32"  Name="offsets"  format="ascii">2 4 6 8 10 12 14 16 18 20 22 24 26 28 30 32 34 36 38 40 </DataArray>
<DataArray  type="UInt8"  Name="types"  format="ascii">3 3 3 3 3 3 3 3 3 3 3 3 3 3 3 3 3 3 3 3 </DataArray>
</Cells>
<PointData  Scalars="u"> 
<DataArray  type="Float64"  Name="u"  format="ascii">-9.2126992478788815e-05  2.9356358953899226e-02  6.3119869179743313e-02  9.3376976046540577e-02  1.1972432673534557e-01  1.4206505907263239e-01  1.6035725431840317e-01  1.7464231231958116e-01  1.8495764432655665e-01  1.9133302505179803e-01  1.9378854798207495e-01  1.9233214206316721e-01  1.8695932610626809e-01  1.7765458624255920e-01  1.6439431284128903e-01  1.4715114310831001e-01  1.2589431768669029e-01  1.0059082004463206e-01  7.1163919726245237e-02  3.7344788018290456e-02  -9.2126992478755868e-05  </DataArray> 
</PointData> 
</Piece>
</UnstructuredGrid>
</VTKFile>