<?xml version="1.0"?>
<VTKFile type="UnstructuredGrid"  version="0.1"  >
<UnstructuredGrid>
<Piece  NumberOfPoints="441" NumberOfCells="800">
<Points>
<DataArray  type="Float64"  NumberOfComponents="3"  format="ascii">0 0 0  0.05 0 0  0.1 0 0  0.15 0 0  0.2 0 0  0.25 0 0  0.3 0 0  0.35 0 0  0.4 0 0  0.45 0 0  0.5 0 0  0.55 0 0  0.6 0 0  0.65 0 0  0.7 0 0  0.75 0 0  0.8 0 0  0.85 0 0  0.9 0 0  0.95 0 0  1 0 0  0 0.05 0  0.05 0.05 0  0.1 0.05 0  0.15 0.05 0  0.2 0.05 0  0.25 0.05 0  0.3 0.05 0  0.35 0.05 0  0.4 0.05 0  0.45 0.05 0  0.5 0.05 0  0.55 0.05 0  0.6 0.05 0  0.65 0.05 0  0.7 0.05 0  0.75 0.05 0  0.8 0.05 0  0.85 0.05 0  0.9 0.05 0  0.95 0.05 0  1 0.05 0  0 0.1 0  0.05 0.1 0  0.1 0.1 0  0.15 0.1 0  0.2 0.1 0  0.25 0.1 0  0.3 0.1 0  0.35 0.1 0  0.4 0.1 0  0.45 0.1 0  0.5 0.1 0  0.55 0.1 0  0.6 0.1 0  0.65 0.1 0  0.7 0.1 0  0.75 0.1 0  0.8 0.1 0  0.85 0.1 0  0.9 0.1 0  0.95 0.1 0  1 0.1 0  0 0.15 0  0.05 0.15 0  0.1 0.15 0  0.15 0.15 0  0.2 0.15 0  0.25 0.15 0  0.3 0.15 0  0.35 0.15 0  0.4 0.15 0  0.45 0.15 0  0.5 0.15 0  0.55 0.15 0  0.6 0.15 0  0.65 0.15 0  0.7 0.15 0  0.75 0.15 0  0.8 0.15 0  0.85 0.15 0  0.9 0.15 0  0.95 0.15 0  1 0.15 0  0 0.2 0  0.05 0.2 0  0.1 0.2 0  0.15 0.2 0  0.2 0.2 0  0.25 0.2 0  0.3 0.2 0  0.35 0.2 0  0.4 0.2 0  0.45 0.2 0  0.5 0.2 0  0.55 0.2 0  0.6 0.2 0  0.65 0.2 0  0.7 0.2 0  0.75 0.2 0  0.8 0.2 0  0.85 0.2 0  0.9 0.2 0  0.95 0.2 0  1 0.2 0  0 0.25 0  0.05 0.25 0  0.1 0.25 0  0.15 0.25 0  0.2 0.25 0  0.25 0.25 0  0.3 0.25 0  0.35 0.25 0  0.4 0.25 0  0.45 0.25 0  0.5 0.25 0  0.55 0.25 0  0.6 0.25 0  0.65 0.25 0  0.7 0.25 0  0.75 0.25 0  0.8 0.25 0  0.85 0.25 0  0.9 0.25 0  0.95 0.25 0  1 0.25 0  0 0.3 0  0.05 0.3 0  0.1 0.3 0  0.15 0.3 0  0.2 0.3 0  0.25 0.3 0  0.3 0.3 0  0.35 0.3 0  0.4 0.3 0  0.45 0.3 0  0.5 0.3 0  0.55 0.3 0  0.6 0.3 0  0.65 0.3 0  0.7 0.3 0  0.75 0.3 0  0.8 0.3 0  0.85 0.3 0  0.9 0.3 0  0.95 0.3 0  1 0.3 0  0 0.35 0  0.05 0.35 0  0.1 0.35 0  0.15 0.35 0  0.2 0.35 0  0.25 0.35 0  0.3 0.35 0  0.35 0.35 0  0.4 0.35 0  0.45 0.35 0  0.5 0.35 0  0.55 0.35 0  0.6 0.35 0  0.65 0.35 0  0.7 0.35 0  0.75 0.35 0  0.8 0.35 0  0.85 0.35 0  0.9 0.35 0  0.95 0.35 0  1 0.35 0  0 0.4 0  0.05 0.4 0  0.1 0.4 0  0.15 0.4 0  0.2 0.4 0  0.25 0.4 0  0.3 0.4 0  0.35 0.4 0  0.4 0.4 0  0.45 0.4 0  0.5 0.4 0  0.55 0.4 0  0.6 0.4 0  0.65 0.4 0  0.7 0.4 0  0.75 0.4 0  0.8 0.4 0  0.85 0.4 0  0.9 0.4 0  0.95 0.4 0  1 0.4 0  0 0.45 0  0.05 0.45 0  0.1 0.45 0  0.15 0.45 0  0.2 0.45 0  0.25 0.45 0  0.3 0.45 0  0.35 0.45 0  0.4 0.45 0  0.45 0.45 0  0.5 0.45 0  0.55 0.45 0  0.6 0.45 0  0.65 0.45 0  0.7 0.45 0  0.75 0.45 0  0.8 0.45 0  0.85 0.45 0  0.9 0.45 0  0.95 0.45 0  1 0.45 0  0 0.5 0  0.05 0.5 0  0.1 0.5 0  0.15 0.5 0  0.2 0.5 0  0.25 0.5 0  0.3 0.5 0  0.35 0.5 0  0.4 0.5 0  0.45 0.5 0  0.5 0.5 0  0.55 0.5 0  0.6 0.5 0  0.65 0.5 0  0.7 0.5 0  0.75 0.5 0  0.8 0.5 0  0.85 0.5 0  0.9 0.5 0  0.95 0.5 0  1 0.5 0  0 0.55 0  0.05 0.55 0  0.1 0.55 0  0.15 0.55 0  0.2 0.55 0  0.25 0.55 0  0.3 0.55 0  0.35 0.55 0  0.4 0.55 0  0.45 0.55 0  0.5 0.55 0  0.55 0.55 0  0.6 0.55 0  0.65 0.55 0  0.7 0.55 0  0.75 0.55 0  0.8 0.55 0  0.85 0.55 0  0.9 0.55 0  0.95 0.55 0  1 0.55 0  0 0.6 0  0.05 0.6 0  0.1 0.6 0  0.15 0.6 0  0.2 0.6 0  0.25 0.6 0  0.3 0.6 0  0.35 0.6 0  0.4 0.6 0  0.45 0.6 0  0.5 0.6 0  0.55 0.6 0  0.6 0.6 0  0.65 0.6 0  0.7 0.6 0  0.75 0.6 0  0.8 0.6 0  0.85 0.6 0  0.9 0.6 0  0.95 0.6 0  1 0.6 0  0 0.65 0  0.05 0.65 0  0.1 0.65 0  0.15 0.65 0  0.2 0.65 0  0.25 0.65 0  0.3 0.65 0  0.35 0.65 0  0.4 0.65 0  0.45 0.65 0  0.5 0.65 0  0.55 0.65 0  0.6 0.65 0  0.65 0.65 0  0.7 0.65 0  0.75 0.65 0  0.8 0.65 0  0.85 0.65 0  0.9 0.65 0  0.95 0.65 0  1 0.65 0  0 0.7 0  0.05 0.7 0  0.1 0.7 0  0.15 0.7 0  0.2 0.7 0  0.25 0.7 0  0.3 0.7 0  0.35 0.7 0  0.4 0.7 0  0.45 0.7 0  0.5 0.7 0  0.55 0.7 0  0.6 0.7 0  0.65 0.7 0  0.7 0.7 0  0.75 0.7 0  0.8 0.7 0  0.85 0.7 0  0.9 0.7 0  0.95 0.7 0  1 0.7 0  0 0.75 0  0.05 0.75 0  0.1 0.75 0  0.15 0.75 0  0.2 0.75 0  0.25 0.75 0  0.3 0.75 0  0.35 0.75 0  0.4 0.75 0  0.45 0.75 0  0.5 0.75 0  0.55 0.75 0  0.6 0.75 0  0.65 0.75 0  0.7 0.75 0  0.75 0.75 0  0.8 0.75 0  0.85 0.75 0  0.9 0.75 0  0.95 0.75 0  1 0.75 0  0 0.8 0  0.05 0.8 0  0.1 0.8 0  0.15 0.8 0  0.2 0.8 0  0.25 0.8 0  0.3 0.8 0  0.35 0.8 0  0.4 0.8 0  0.45 0.8 0  0.5 0.8 0  0.55 0.8 0  0.6 0.8 0  0.65 0.8 0  0.7 0.8 0  0.75 0.8 0  0.8 0.8 0  0.85 0.8 0  0.9 0.8 0  0.95 0.8 0  1 0.8 0  0 0.85 0  0.05 0.85 0  0.1 0.85 0  0.15 0.85 0  0.2 0.85 0  0.25 0.85 0  0.3 0.85 0  0.35 0.85 0  0.4 0.85 0  0.45 0.85 0  0.5 0.85 0  0.55 0.85 0  0.6 0.85 0  0.65 0.85 0  0.7 0.85 0  0.75 0.85 0  0.8 0.85 0  0.85 0.85 0  0.9 0.85 0  0.95 0.85 0  1 0.85 0  0 0.9 0  0.05 0.9 0  0.1 0.9 0  0.15 0.9 0  0.2 0.9 0  0.25 0.9 0  0.3 0.9 0  0.35 0.9 0  0.4 0.9 0  0.45 0.9 0  0.5 0.9 0  0.55 0.9 0  0.6 0.9 0  0.65 0.9 0  0.7 0.9 0  0.75 0.9 0  0.8 0.9 0  0.85 0.9 0  0.9 0.9 0  0.95 0.9 0  1 0.9 0  0 0.95 0  0.05 0.95 0  0.1 0.95 0  0.15 0.95 0  0.2 0.95 0  0.25 0.95 0  0.3 0.95 0  0.35 0.95 0  0.4 0.95 0  0.45 0.95 0  0.5 0.95 0  0.55 0.95 0  0.6 0.95 0  0.65 0.95 0  0.7 0.95 0  0.75 0.95 0  0.8 0.95 0  0.85 0.95 0  0.9 0.95 0  0.95 0.95 0  1 0.95 0  0 1 0  0.05 1 0  0.1 1 0  0.15 1 0  0.2 1 0  0.25 1 0  0.3 1 0  0.35 1 0  0.4 1 0  0.45 1 0  0.5 1 0  0.55 1 0  0.6 1 0  0.65 1 0  0.7 1 0  0.75 1 0  0.8 1 0  0.85 1 0  0.9 1 0  0.95 1 0  1 1 0  </DataArray>
</Points>
<Cells>
[...]
<PointData  Scalars="u"> 
<DataArray  type="Float64"  Name="u"  format="ascii">1.8552122368979527e+00  -1.9893361762789312e+00  -3.8564649281063237e+00  -4.7237179244259293e+00  -4.7451221882803436e+00  -4.4206330139490984e+00  -4.0172030353835346e+00  -3.5763452836001854e+00  -3.0768972090799909e+00  -2.5158594213313674e+00  -1.9159107026112296e+00  -1.3104028065653450e+00  -7.3051152202650182e-01  -1.9822239268216724e-01  2.7559975484819360e-01  6.9292862042843684e-01  1.0728293810715459e+00  1.4434945684333291e+00  1.7761471787062357e+00  1.6853705245398143e+00  -1.7030666551168325e-01  -7.1727976707467100e-01  -2.0125265323399528e+00  -3.9769816511992375e+00  -4.5409089132254916e+00  -4.4337683732948268e+00  -4.1225164793871292e+00  -3.7518806420538984e+00  -3.3385734482226912e+00  -2.8749228603391397e+00  -2.3680685354621094e+00  -1.8380901660956659e+00  -1.3080937225661271e+00  -7.9833519883626947e-01  -3.2364686567108603e-01  1.0724339330915313e-01  4.9291683026097965e-01  8.4166398200449088e-01  1.1666575839272200e+00  1.4889552413649509e+00  1.5623584628425566e+00  1.0609615965468790e+00  -1.2838145315841236e+00  -2.3266656125505865e+00  -4.1490103390279200e+00  -4.3726976889470333e+00  -4.1796627524288334e+00  -3.8653208872868539e+00  -3.5107191335947552e+00  -3.1235411596915377e+00  -2.6980624225614216e+00  -2.2416252149654339e+00  -1.7700975534259300e+00  -1.3003436189706523e+00  -8.4680943190732438e-01  -4.2031643994845558e-01  -2.7900081438575992e-02  3.2816233465753031e-01  6.5319724285244640e-01  9.6429516006256655e-01  1.3078614016699643e+00  1.5797779887684389e+00  1.4989826714982568e+00  -1.5433319859778538e+00  -2.5984484950916551e+00  -4.0829031794421562e+00  -4.1582470139141741e+00  -3.9459027503701263e+00  -3.6276827739232709e+00  -3.2888660127816438e+00  -2.9292733848630865e+00  -2.5407456167333158e+00  -2.1290610727516581e+00  -1.7068107212198353e+00  -1.2869111501107595e+00  -8.8016222268023481e-01  -4.9463339727902211e-01  -1.3569389910997090e-01  1.9507464697500740e-01  5.0370620653223153e-01  8.1076224978756650e-01  1.1752259527345512e+00  1.5326872042843918e+00  1.6313453173701289e+00  -1.6774629578883047e+00  -2.6598812745198424e+00  -3.9213719372396922e+00  -3.9466648474146702e+00  -3.7183962047563432e+00  -3.4034851952470442e+00  -3.0855299277077926e+00  -2.7531928788744318e+00  -2.3988148440232488e+00  -2.0267828512799335e+00  -1.6468675935253241e+00  -1.2690880594122669e+00  -9.0175641178373633e-01  -5.5104156031168705e-01  -2.2093505087891946e-01  8.7974266987821390e-02  3.8250335500438837e-01  6.8454200618536554e-01  1.0540110499736952e+00  1.4457948717766944e+00  1.6363373306063094e+00  -1.7321489736260840e+00  -2.6335054805468734e+00  -3.7264301357889824e+00  -3.7176836995923095e+00  -3.4880234616613355e+00  -3.1919960824526186e+00  -2.8975970753007956e+00  -2.5917991768844502e+00  -2.2692107510005033e+00  -1.9324930178204729e+00  -1.5893157001654212e+00  -1.2476481140595008e+00  -9.1405806897594599e-01  -5.9334420015037403e-01  -2.8842545514339318e-01  8.8323519779198961e-04  2.8166671918610797e-01  5.7512708695520465e-01  9.3726880897495568e-01  1.3339085680413032e+00  1.5653931035560433e+00  -1.7571407326076340e+00  -2.5642138307935367e+00  -3.5086848695680675e+00  -3.4817704175610440e+00  -3.2657941092523326e+00  -2.9935712086387531e+00  -2.7227650762437023e+00  -2.4431713871922818e+00  -2.1500185061445896e+00  -1.8448094374406876e+00  -1.5338468904413107e+00  -1.2235589485631502e+00  -9.1924405554382405e-01  -6.2472247928766200e-01  -3.4216935479330374e-01  -7.0969438249057062e-02  1.9566832572292639e-01  4.7710969316105978e-01  8.2344989652580480e-01  1.2075069055047927e+00  1.4536351720555136e+00  -1.7691874212780843e+00  -2.4759780763143771e+00  -3.2866562098767615e+00  -3.2513805696085378e+00  -3.0539463700248084e+00  -2.8066807094271389e+00  -2.5602188595505084e+00  -2.3060592283060015e+00  -2.0398990684086713e+00  -1.7629640115027190e+00  -1.4804882211690167e+00  -1.1977378755238781e+00  -9.1910962571945298e-01  -6.4774547439961205e-01  -3.8535216802661459e-01  -1.3118013416250937e-01  1.2089162151133508e-01  3.8786749989455960e-01  7.1328165900577412e-01  1.0749848492465885e+00  1.3207463817914100e+00  -1.7772430210672723e+00  -2.3834266797600616e+00  -3.0711620494610101e+00  -3.0318991369529669e+00  -2.8544074525769734e+00  -2.6324628539468238e+00  -2.4099247927772729e+00  -2.1796035146419368e+00  -1.9381366321029254e+00  -1.6866369723192320e+00  -1.4294628946896497e+00  -1.1710539699126798e+00  -9.1515714719626706e-01  -6.6445630268540545e-01  -4.2040123841000776e-01  -1.8232034905372416e-01  5.5031581755551923e-02  3.0613355577801860e-01  6.0796134004399538e-01  9.4223022822552427e-01  1.1790670154583933e+00  -1.7855338975776354e+00  -2.2941472852650073e+00  -2.8683904157957310e+00  -2.8271367863571473e+00  -2.6692585832870455e+00  -2.4716114168715686e+00  -2.2716184892495117e+00  -2.0633817861286725e+00  -1.8444204266565924e+00  -1.6157496144345196e+00  -1.3810967928465581e+00  -1.1442933229087073e+00  -9.0861025421407149e-01  -6.7643890911938509e-01  -4.4912190409260622e-01  -2.2619881087281299e-01  -3.3823647893663198e-03  2.3131997294102455e-01  5.0864745688361668e-01  8.1341255334763607e-01  1.0366762202622808e+00  -1.7956227229084041e+00  -2.2120246708813762e+00  -2.6818539761162312e+00  -2.6393172346463802e+00  -2.4996679449019377e+00  -2.3245380793450230e+00  -2.1453376557412609e+00  -1.9572867620527239e+00  -1.7586365076685868e+00  -1.5503766674881121e+00  -1.3357586502534722e+00  -1.1181407189825330e+00  -9.0045248449722404e-01  -6.8490875024912357e-01  -4.7284334553735502e-01  -2.6408039105955899e-01  -5.5293021185664898e-02  1.6317166680597781e-01  4.1629410479094181e-01  6.9143940430559181e-01  8.9893052058817557e-01  -1.8077343981420664e+00  -2.1387932000548084e+00  -2.5132935044930416e+00  -2.4695872661173266e+00  -2.3463159264347850e+00  -2.1915591203972240e+00  -2.0311571663877386e+00  -1.8612788666874214e+00  -1.6807876699980207e+00  -1.4906753806965485e+00  -1.2938073433484607e+00  -1.0931754029636445e+00  -8.9146494156421630e-01  -6.9079102605100706e-01  -4.9254032421384353e-01  -2.9685244911711806e-01  -1.0131445866296621e-01  1.0158864641735522e-01  3.3162937646525675e-01  5.7831416753395015e-01  7.6941069772206949e-01  -1.8214077488738296e+00  -2.0749711552896364e+00  -2.3634028904201339e+00  -2.3184351906067580e+00  -2.2095211136826469e+00  -2.0728306367111973e+00  -1.9291242857339743e+00  -1.7753751809685459e+00  -1.6109428276841535e+00  -1.4368235609641165e+00  -1.2555664168143892e+00  -1.0698765969126385e+00  -8.8226147932455046e-01  -6.9478758213399294e-01  -5.0892908693873828e-01  -3.2514317521302644e-01  -1.4185595731273218e-01  4.6536676846327875e-02  2.5517949419183106e-01  4.7539389142753807e-01  6.5049943202902927e-01  -1.8358755791004473e+00  -2.0204255835023881e+00  -2.2322736266477761e+00  -2.1859431694759492e+00  -2.0893576703028836e+00  -1.9683957029751116e+00  -1.8392603770782583e+00  -1.6996047035771138e+00  -1.5491816151271833e+00  -1.3889891933655947e+00  -1.2213135490427014e+00  -1.0486315186062223e+00  -8.7332001833838391e-01  -6.9742986203949031e-01  -5.2253798740903090e-01  -3.4940272203683942e-01  -1.7719872645164639e-01  -1.9967602164287753e-03  1.8730618132270463e-01  3.8357623446538097e-01  5.4376303168704898e-01  -1.8502771318263569e+00  -1.9747041338664448e+00  -2.1196740678771566e+00  -2.0719642472468034e+00  -1.9857514432890087e+00  -1.8782179162205803e+00  -1.7615536560816429e+00  -1.6339868022509294e+00  -1.4955764796770690e+00  -1.3473175952770442e+00  -1.1912761873033437e+00  -1.0297464261826121e+00  -8.6500934270841090e-01  -6.9911936518567075e-01  -5.3375842109181382e-01  -3.6995783719191888e-01  -2.0754244031080313e-01  -4.4021932471650316e-02  1.2824443154126730e-01  3.0343563070777663e-01  4.5020962062363984e-01  -1.8637767239972476e+00  -1.9372312973315828e+00  -2.0252236937876589e+00  -1.9762382488875843e+00  -1.8985471248411401e+00  -1.8022113837858409e+00  -1.6959665086222184e+00  -1.5785268607419822e+00  -1.4501837580927797e+00  -1.3119249300784528e+00  -1.1656337027447361e+00  -1.0134589062150428e+00  -8.5761099675969044e-01  -7.0015821487922048e-01  -5.4288096140111930e-01  -3.8704819202006296e-01  -2.3303388083068338e-01  -7.9554777490611225e-02  7.8135635767290393e-02  2.3532300149016969e-01  3.7046813385019700e-01  -1.8756229667365030e+00  -1.9074209868861858e+00  -1.9484998780435823e+00  -1.8984664685955008e+00  -1.8275560296831479e+00  -1.7402660486657044e+00  -1.6424449716675433e+00  -1.5332166679021313e+00  -1.4130416360201241e+00  -1.2828986562215026e+00  -1.1445226606766914e+00  -9.9994895282430973e-01  -8.5133656204188612e-01  -7.0077152872401216e-01  -5.5012033742989475e-01  -4.0085040767763713e-01  -2.5378281512483719e-01  -1.0861413199826528e-01  3.7058545552655885e-02  1.7943921346529423e-01  3.0491392528322542e-01  -1.8851724860430707e+00  -1.8847502518766663e+00  -1.8891018249549116e+00  -1.8383611010017138e+00  -1.7725910649769738e+00  -1.6922689126291770e+00  -1.6009300626037677e+00  -1.4980400433170262e+00  -1.3841739137464972e+00  -1.2603022555567469e+00  -1.1280443370016964e+00  -9.8935030107921706e-01  -8.4634276545393849e-01  -7.0112534198011600e-01  -5.5563456852820581e-01  -4.1149481216259831e-01  -2.6987187186947714e-01  -1.3122659177119722e-01  5.0379539982760031e-03  1.3588338255774302e-01  2.5375854263845515e-01  -1.8920145242389788e+00  -1.8687618307574354e+00  -1.8466815274149941e+00  -1.7956754616235402e+00  -1.7334858922934757e+00  -1.6581148397033332e+00  -1.5713630437817578e+00  -1.4729738512245547e+00  -1.3635899303492944e+00  -1.2441756149909549e+00  -1.1162668972049778e+00  -9.8175480786522917e-01  -8.4273792708338224e-01  -7.0133441506779026e-01  -5.5953253481428766e-01  -4.1907041293401398e-01  -2.8135906615322620e-01  -1.4741326780958355e-01  -1.7892966452107469e-02  1.0473231925356061e-01  2.1711474997509239e-01  -1.8953718364846706e+00  -1.8590909751796270e+00  -1.8210136116426070e+00  -1.7702460400725273e+00  -1.7101178896283897e+00  -1.6377376291782129e+00  -1.5537057461894479e+00  -1.4580104065078487e+00  -1.3513045096808587e+00  -1.2345556955814123e+00  -1.1092467145467249e+00  -9.7723513410164042e-01  -8.4060593503530923e-01  -7.0148715444046239e-01  -5.6189918623208013e-01  -4.2365006354496498e-01  -2.8829894797172673e-01  -1.5720266773885741e-01  -3.1771302526038811e-02  8.5862585952346915e-02  1.9499354688732601e-01  -1.8958924021275236e+00  -1.8557584338087691e+00  -1.8120225020097336e+00  -1.7618223292130000e+00  -1.7024350748371304e+00  -1.6310206898805342e+00  -1.5479055809687923e+00  -1.4530957731951579e+00  -1.3472837376486611e+00  -1.2314194233720035e+00  -1.1069732401615116e+00  -9.7579006195901663e-01  -8.3995191720436069e-01  -7.0159072950769563e-01  -5.6273877233136327e-01  -4.2522886466955762e-01  -2.9067226280177788e-01  -1.6055490365500380e-01  -3.6539902860361809e-02  7.9531443405728180e-02  1.8781788215958978e-01  </DataArray> 
</PointData> 
</Piece>
</UnstructuredGrid>
</VTKFile>