<?xml version="1.0"?>
<VTKFile type="UnstructuredGrid"  version="0.1"  >
<UnstructuredGrid>
<Piece  NumberOfPoints="441" NumberOfCells="800">
<Points>
<DataArray  type="Float64"  NumberOfComponents="3"  format="ascii">0 0 0  0.05 0 0  0.1 0 0  0.15 0 0  0.2 0 0  0.25 0 0  0.3 0 0  0.35 0 0  0.4 0 0  0.45 0 0  0.5 0 0  0.55 0 0  0.6 0 0  0.65 0 0  0.7 0 0  0.75 0 0  0.8 0 0  0.85 0 0  0.9 0 0  0.95 0 0  1 0 0  0 0.05 0  0.05 0.05 0  0.1 0.05 0  0.15 0.05 0  0.2 0.05 0  0.25 0.05 0  0.3 0.05 0  0.35 0.05 0  0.4 0.05 0  0.45 0.05 0  0.5 0.05 0  0.55 0.05 0  0.6 0.05 0  0.65 0.05 0  0.7 0.05 0  0.75 0.05 0  0.8 0.05 0  0.85 0.05 0  0.9 0.05 0  0.95 0.05 0  1 0.05 0  0 0.1 0  0.05 0.1 0  0.1 0.1 0  0.15 0.1 0  0.2 0.1 0  0.25 0.1 0  0.3 0.1 0  0.35 0.1 0  0.4 0.1 0  0.45 0.1 0  0.5 0.1 0  0.55 0.1 0  0.6 0.1 0  0.65 0.1 0  0.7 0.1 0  0.75 0.1 0  0.8 0.1 0  0.85 0.1 0  0.9 0.1 0  0.95 0.1 0  1 0.1 0  0 0.15 0  0.05 0.15 0  0.1 0.15 0  0.15 0.15 0  0.2 0.15 0  0.25 0.15 0  0.3 0.15 0  0.35 0.15 0  0.4 0.15 0  0.45 0.15 0  0.5 0.15 0  0.55 0.15 0  0.6 0.15 0  0.65 0.15 0  0.7 0.15 0  0.75 0.15 0  0.8 0.15 0  0.85 0.15 0  0.9 0.15 0  0.95 0.15 0  1 0.15 0  0 0.2 0  0.05 0.2 0  0.1 0.2 0  0.15 0.2 0  0.2 0.2 0  0.25 0.2 0  0.3 0.2 0  0.35 0.2 0  0.4 0.2 0  0.45 0.2 0  0.5 0.2 0  0.55 0.2 0  0.6 0.2 0  0.65 0.2 0  0.7 0.2 0  0.75 0.2 0  0.8 0.2 0  0.85 0.2 0  0.9 0.2 0  0.95 0.2 0  1 0.2 0  0 0.25 0  0.05 0.25 0  0.1 0.25 0  0.15 0.25 0  0.2 0.25 0  0.25 0.25 0  0.3 0.25 0  0.35 0.25 0  0.4 0.25 0  0.45 0.25 0  0.5 0.25 0  0.55 0.25 0  0.6 0.25 0  0.65 0.25 0  0.7 0.25 0  0.75 0.25 0  0.8 0.25 0  0.85 0.25 0  0.9 0.25 0  0.95 0.25 0  1 0.25 0  0 0.3 0  0.05 0.3 0  0.1 0.3 0  0.15 0.3 0  0.2 0.3 0  0.25 0.3 0  0.3 0.3 0  0.35 0.3 0  0.4 0.3 0  0.45 0.3 0  0.5 0.3 0  0.55 0.3 0  0.6 0.3 0  0.65 0.3 0  0.7 0.3 0  0.75 0.3 0  0.8 0.3 0  0.85 0.3 0  0.9 0.3 0  0.95 0.3 0  1 0.3 0  0 0.35 0  0.05 0.35 0  0.1 0.35 0  0.15 0.35 0  0.2 0.35 0  0.25 0.35 0  0.3 0.35 0  0.35 0.35 0  0.4 0.35 0  0.45 0.35 0  0.5 0.35 0  0.55 0.35 0  0.6 0.35 0  0.65 0.35 0  0.7 0.35 0  0.75 0.35 0  0.8 0.35 0  0.85 0.35 0  0.9 0.35 0  0.95 0.35 0  1 0.35 0  0 0.4 0  0.05 0.4 0  0.1 0.4 0  0.15 0.4 0  0.2 0.4 0  0.25 0.4 0  0.3 0.4 0  0.35 0.4 0  0.4 0.4 0  0.45 0.4 0  0.5 0.4 0  0.55 0.4 0  0.6 0.4 0  0.65 0.4 0  0.7 0.4 0  0.75 0.4 0  0.8 0.4 0  0.85 0.4 0  0.9 0.4 0  0.95 0.4 0  1 0.4 0  0 0.45 0  0.05 0.45 0  0.1 0.45 0  0.15 0.45 0  0.2 0.45 0  0.25 0.45 0  0.3 0.45 0  0.35 0.45 0  0.4 0.45 0  0.45 0.45 0  0.5 0.45 0  0.55 0.45 0  0.6 0.45 0  0.65 0.45 0  0.7 0.45 0  0.75 0.45 0  0.8 0.45 0  0.85 0.45 0  0.9 0.45 0  0.95 0.45 0  1 0.45 0  0 0.5 0  0.05 0.5 0  0.1 0.5 0  0.15 0.5 0  0.2 0.5 0  0.25 0.5 0  0.3 0.5 0  0.35 0.5 0  0.4 0.5 0  0.45 0.5 0  0.5 0.5 0  0.55 0.5 0  0.6 0.5 0  0.65 0.5 0  0.7 0.5 0  0.75 0.5 0  0.8 0.5 0  0.85 0.5 0  0.9 0.5 0  0.95 0.5 0  1 0.5 0  0 0.55 0  0.05 0.55 0  0.1 0.55 0  0.15 0.55 0  0.2 0.55 0  0.25 0.55 0  0.3 0.55 0  0.35 0.55 0  0.4 0.55 0  0.45 0.55 0  0.5 0.55 0  0.55 0.55 0  0.6 0.55 0  0.65 0.55 0  0.7 0.55 0  0.75 0.55 0  0.8 0.55 0  0.85 0.55 0  0.9 0.55 0  0.95 0.55 0  1 0.55 0  0 0.6 0  0.05 0.6 0  0.1 0.6 0  0.15 0.6 0  0.2 0.6 0  0.25 0.6 0  0.3 0.6 0  0.35 0.6 0  0.4 0.6 0  0.45 0.6 0  0.5 0.6 0  0.55 0.6 0  0.6 0.6 0  0.65 0.6 0  0.7 0.6 0  0.75 0.6 0  0.8 0.6 0  0.85 0.6 0  0.9 0.6 0  0.95 0.6 0  1 0.6 0  0 0.65 0  0.05 0.65 0  0.1 0.65 0  0.15 0.65 0  0.2 0.65 0  0.25 0.65 0  0.3 0.65 0  0.35 0.65 0  0.4 0.65 0  0.45 0.65 0  0.5 0.65 0  0.55 0.65 0  0.6 0.65 0  0.65 0.65 0  0.7 0.65 0  0.75 0.65 0  0.8 0.65 0  0.85 0.65 0  0.9 0.65 0  0.95 0.65 0  1 0.65 0  0 0.7 0  0.05 0.7 0  0.1 0.7 0  0.15 0.7 0  0.2 0.7 0  0.25 0.7 0  0.3 0.7 0  0.35 0.7 0  0.4 0.7 0  0.45 0.7 0  0.5 0.7 0  0.55 0.7 0  0.6 0.7 0  0.65 0.7 0  0.7 0.7 0  0.75 0.7 0  0.8 0.7 0  0.85 0.7 0  0.9 0.7 0  0.95 0.7 0  1 0.7 0  0 0.75 0  0.05 0.75 0  0.1 0.75 0  0.15 0.75 0  0.2 0.75 0  0.25 0.75 0  0.3 0.75 0  0.35 0.75 0  0.4 0.75 0  0.45 0.75 0  0.5 0.75 0  0.55 0.75 0  0.6 0.75 0  0.65 0.75 0  0.7 0.75 0  0.75 0.75 0  0.8 0.75 0  0.85 0.75 0  0.9 0.75 0  0.95 0.75 0  1 0.75 0  0 0.8 0  0.05 0.8 0  0.1 0.8 0  0.15 0.8 0  0.2 0.8 0  0.25 0.8 0  0.3 0.8 0  0.35 0.8 0  0.4 0.8 0  0.45 0.8 0  0.5 0.8 0  0.55 0.8 0  0.6 0.8 0  0.65 0.8 0  0.7 0.8 0  0.75 0.8 0  0.8 0.8 0  0.85 0.8 0  0.9 0.8 0  0.95 0.8 0  1 0.8 0  0 0.85 0  0.05 0.85 0  0.1 0.85 0  0.15 0.85 0  0.2 0.85 0  0.25 0.85 0  0.3 0.85 0  0.35 0.85 0  0.4 0.85 0  0.45 0.85 0  0.5 0.85 0  0.55 0.85 0  0.6 0.85 0  0.65 0.85 0  0.7 0.85 0  0.75 0.85 0  0.8 0.85 0  0.85 0.85 0  0.9 0.85 0  0.95 0.85 0  1 0.85 0  0 0.9 0  0.05 0.9 0  0.1 0.9 0  0.15 0.9 0  0.2 0.9 0  0.25 0.9 0  0.3 0.9 0  0.35 0.9 0  0.4 0.9 0  0.45 0.9 0  0.5 0.9 0  0.55 0.9 0  0.6 0.9 0  0.65 0.9 0  0.7 0.9 0  0.75 0.9 0  0.8 0.9 0  0.85 0.9 0  0.9 0.9 0  0.95 0.9 0  1 0.9 0  0 0.95 0  0.05 0.95 0  0.1 0.95 0  0.15 0.95 0  0.2 0.95 0  0.25 0.95 0  0.3 0.95 0  0.35 0.95 0  0.4 0.95 0  0.45 0.95 0  0.5 0.95 0  0.55 0.95 0  0.6 0.95 0  0.65 0.95 0  0.7 0.95 0  0.75 0.95 0  0.8 0.95 0  0.85 0.95 0  0.9 0.95 0  0.95 0.95 0  1 0.95 0  0 1 0  0.05 1 0  0.1 1 0  0.15 1 0  0.2 1 0  0.25 1 0  0.3 1 0  0.35 1 0  0.4 1 0  0.45 1 0  0.5 1 0  0.55 1 0  0.6 1 0  0.65 1 0  0.7 1 0  0.75 1 0  0.8 1 0  0.85 1 0  0.9 1 0  0.95 1 0  1 1 0  </DataArray>
</Points>
<Cells>
[...]
<PointData  Vectors="u"> 
<DataArray  type="Float64"  Name="u"  NumberOfComponents="3" format="ascii">0.0000000000000000e+00 0.0000000000000000e+00 0.0000000000000000e+00  0.0000000000000000e+00 0.0000000000000000e+00 0.0000000000000000e+00  0.0000000000000000e+00 0.0000000000000000e+00 0.0000000000000000e+00  0.0000000000000000e+00 0.0000000000000000e+00 0.0000000000000000e+00  0.0000000000000000e+00 0.0000000000000000e+00 0.0000000000000000e+00  0.0000000000000000e+00 0.0000000000000000e+00 0.0000000000000000e+00  0.0000000000000000e+00 0.0000000000000000e+00 0.0000000000000000e+00  0.0000000000000000e+00 0.0000000000000000e+00 0.0000000000000000e+00  0.0000000000000000e+00 0.0000000000000000e+00 0.0000000000000000e+00  0.0000000000000000e+00 0.0000000000000000e+00 0.0000000000000000e+00  0.0000000000000000e+00 0.0000000000000000e+00 0.0000000000000000e+00  0.0000000000000000e+00 0.0000000000000000e+00 0.0000000000000000e+00  0.0000000000000000e+00 0.0000000000000000e+00 0.0000000000000000e+00  0.0000000000000000e+00 0.0000000000000000e+00 0.0000000000000000e+00  0.0000000000000000e+00 0.0000000000000000e+00 0.0000000000000000e+00  0.0000000000000000e+00 0.0000000000000000e+00 0.0000000000000000e+00  0.0000000000000000e+00 0.0000000000000000e+00 0.0000000000000000e+00  0.0000000000000000e+00 0.0000000000000000e+00 0.0000000000000000e+00  0.0000000000000000e+00 0.0000000000000000e+00 0.0000000000000000e+00  0.0000000000000000e+00 0.0000000000000000e+00 0.0000000000000000e+00  0.0000000000000000e+00 0.0000000000000000e+00 0.0000000000000000e+00  0.0000000000000000e+00 0.0000000000000000e+00 0.0000000000000000e+00  0.0000000000000000e+00 0.0000000000000000e+00 0.0000000000000000e+00  0.0000000000000000e+00 0.0000000000000000e+00 0.0000000000000000e+00  0.0000000000000000e+00 0.0000000000000000e+00 0.0000000000000000e+00  0.0000000000000000e+00 0.0000000000000000e+00 0.0000000000000000e+00  0.0000000000000000e+00 0.0000000000000000e+00 0.0000000000000000e+00  0.0000000000000000e+00 0.0000000000000000e+00 0.0000000000000000e+00  0.0000000000000000e+00 0.0000000000000000e+00 0.0000000000000000e+00  0.0000000000000000e+00 0.0000000000000000e+00 0.0000000000000000e+00  -4.6842331829262054e-16 0.0000000000000000e+00 0.0000000000000000e+00  -6.5295716759896948e-16 0.0000000000000000e+00 0.0000000000000000e+00  -7.6967756352498784e-16 0.0000000000000000e+00 0.0000000000000000e+00  -8.3414759541369167e-16 0.0000000000000000e+00 0.0000000000000000e+00  -8.8768554287266257e-16 0.0000000000000000e+00 0.0000000000000000e+00  -9.9023697362233040e-16 0.0000000000000000e+00 0.0000000000000000e+00  -1.1127111907035727e-15 3.1106651409600483e-16 0.0000000000000000e+00  -1.1866100404611850e-15 4.0810755373984449e-16 0.0000000000000000e+00  -1.3138321720978455e-15 5.0448712072136997e-16 0.0000000000000000e+00  -1.3194622745623813e-15 5.9001387071184618e-16 0.0000000000000000e+00  -1.3129886685586560e-15 7.5296050611150454e-16 0.0000000000000000e+00  -1.3042966136605015e-15 1.0093539068928901e-15 0.0000000000000000e+00  0.0000000000000000e+00 0.0000000000000000e+00 0.0000000000000000e+00  0.0000000000000000e+00 0.0000000000000000e+00 0.0000000000000000e+00  0.0000000000000000e+00 0.0000000000000000e+00 0.0000000000000000e+00  0.0000000000000000e+00 0.0000000000000000e+00 0.0000000000000000e+00  0.0000000000000000e+00 0.0000000000000000e+00 0.0000000000000000e+00  0.0000000000000000e+00 0.0000000000000000e+00 0.0000000000000000e+00  -3.3721846535259934e-16 0.0000000000000000e+00 0.0000000000000000e+00  -5.7467001058941421e-16 0.0000000000000000e+00 0.0000000000000000e+00  -7.1521805922021737e-16 0.0000000000000000e+00 0.0000000000000000e+00  -9.8399512824637592e-16 0.0000000000000000e+00 0.0000000000000000e+00  -1.2859338491876390e-15 0.0000000000000000e+00 0.0000000000000000e+00  -1.3811542408674149e-15 0.0000000000000000e+00 0.0000000000000000e+00  -1.6481589328023488e-15 0.0000000000000000e+00 0.0000000000000000e+00  -1.6706419563972785e-15 0.0000000000000000e+00 0.0000000000000000e+00  -1.8658641437037863e-15 4.7814562840145807e-16 0.0000000000000000e+00  -2.0739537773926295e-15 6.3067766880286823e-16 0.0000000000000000e+00  -2.2191634795444038e-15 8.0419000527644463e-16 0.0000000000000000e+00  -2.3305728248629605e-15 9.2689568013550158e-16 0.0000000000000000e+00  -2.3955527836598609e-15 1.0791399843839438e-15 0.0000000000000000e+00  -2.3659083543253000e-15 1.2858778940473920e-15 0.0000000000000000e+00  -2.2295883113645033e-15 1.4386778978083653e-15 0.0000000000000000e+00  0.0000000000000000e+00 0.0000000000000000e+00 0.0000000000000000e+00  0.0000000000000000e+00 0.0000000000000000e+00 0.0000000000000000e+00  0.0000000000000000e+00 0.0000000000000000e+00 0.0000000000000000e+00  0.0000000000000000e+00 0.0000000000000000e+00 0.0000000000000000e+00  0.0000000000000000e+00 0.0000000000000000e+00 0.0000000000000000e+00  0.0000000000000000e+00 0.0000000000000000e+00 0.0000000000000000e+00  -6.0900396248475251e-16 0.0000000000000000e+00 0.0000000000000000e+00  -9.1295673833157333e-16 0.0000000000000000e+00 0.0000000000000000e+00  -1.1876262045562881e-15 0.0000000000000000e+00 0.0000000000000000e+00  -1.5579086824659602e-15 3.2373601991031138e-16 0.0000000000000000e+00  -1.5432228606262581e-15 0.0000000000000000e+00 0.0000000000000000e+00  -1.9408572790625897e-15 3.2130707282039627e-16 0.0000000000000000e+00  -2.3324889176889882e-15 3.5588599854117967e-16 0.0000000000000000e+00  -2.4673313453258614e-15 4.8899691704129101e-16 0.0000000000000000e+00  -2.8004229855823069e-15 7.3756290140696160e-16 0.0000000000000000e+00  -2.8525169493322914e-15 9.8615437988011194e-16 0.0000000000000000e+00  -3.0432653075514628e-15 1.1905741008985597e-15 0.0000000000000000e+00  -3.2640448537909930e-15 1.3337640722618495e-15 0.0000000000000000e+00  -3.3103348148086687e-15 1.4557751236345083e-15 0.0000000000000000e+00  -3.1613657798051079e-15 1.5499491080883504e-15 0.0000000000000000e+00  -2.9488659487875307e-15 1.6614742045258033e-15 0.0000000000000000e+00  0.0000000000000000e+00 0.0000000000000000e+00 0.0000000000000000e+00  0.0000000000000000e+00 0.0000000000000000e+00 0.0000000000000000e+00  0.0000000000000000e+00 0.0000000000000000e+00 0.0000000000000000e+00  -3.0028447862482296e-16 0.0000000000000000e+00 0.0000000000000000e+00  0.0000000000000000e+00 0.0000000000000000e+00 0.0000000000000000e+00  -4.7700811991462630e-16 0.0000000000000000e+00 0.0000000000000000e+00  -9.0035981400756835e-16 3.4144239571785474e-16 0.0000000000000000e+00  -1.2166890592731801e-15 3.8548203912092549e-16 0.0000000000000000e+00  -1.7652545747832768e-15 3.1695561189661842e-16 0.0000000000000000e+00  -1.9609211267007732e-15 4.3895137315110919e-16 0.0000000000000000e+00  -2.2847036582214247e-15 4.8077306715461802e-16 0.0000000000000000e+00  -2.6295514294810258e-15 6.4469210541217691e-16 0.0000000000000000e+00  -3.1281123458819203e-15 7.6943444450129461e-16 0.0000000000000000e+00  -3.6193729091784879e-15 7.8408710875754261e-16 0.0000000000000000e+00  -3.5592783672888815e-15 9.6250179783761712e-16 0.0000000000000000e+00  -3.8201296367277798e-15 1.2746449508701156e-15 0.0000000000000000e+00  -3.8228243103119188e-15 1.4390014330404609e-15 0.0000000000000000e+00  -3.7363398197427070e-15 1.5360732899003540e-15 0.0000000000000000e+00  -3.7124712881869530e-15 1.6047773996861348e-15 0.0000000000000000e+00  -3.7567768172749290e-15 1.6981707900095632e-15 0.0000000000000000e+00  -3.6076184191989562e-15 1.8698739485625939e-15 0.0000000000000000e+00  0.0000000000000000e+00 0.0000000000000000e+00 0.0000000000000000e+00  0.0000000000000000e+00 0.0000000000000000e+00 0.0000000000000000e+00  0.0000000000000000e+00 0.0000000000000000e+00 0.0000000000000000e+00  0.0000000000000000e+00 3.0261533745595792e-16 0.0000000000000000e+00  -5.1291906546312853e-16 3.3930076503373152e-16 0.0000000000000000e+00  -9.2317477886073763e-16 3.8823380287375027e-16 0.0000000000000000e+00  -1.1011737158639542e-15 6.2081905460852449e-16 0.0000000000000000e+00  -1.4980006632729026e-15 7.1005454135667622e-16 0.0000000000000000e+00  -1.9759158469062397e-15 6.6121571587718622e-16 0.0000000000000000e+00  -2.3350238275092903e-15 6.1770665990907534e-16 0.0000000000000000e+00  -2.6919982473772295e-15 8.0460833358788265e-16 0.0000000000000000e+00  -3.2652327906518779e-15 9.3123200573958469e-16 0.0000000000000000e+00  -3.4034344860871574e-15 1.0448227351101165e-15 0.0000000000000000e+00  -3.7236413979384773e-15 1.0498952580379564e-15 0.0000000000000000e+00  -3.8796720532840215e-15 1.1691727832441855e-15 0.0000000000000000e+00  -4.0686011963960523e-15 1.4130032115128766e-15 0.0000000000000000e+00  -4.0453318051594433e-15 1.4509249250631994e-15 0.0000000000000000e+00  -4.0889973997941267e-15 1.6256940242350332e-15 0.0000000000000000e+00  -4.2015792140222993e-15 1.8253368904234167e-15 0.0000000000000000e+00  -4.3016276808769657e-15 2.0047336534557735e-15 0.0000000000000000e+00  -4.5181658542763832e-15 2.2543840699637414e-15 0.0000000000000000e+00  0.0000000000000000e+00 0.0000000000000000e+00 0.0000000000000000e+00  0.0000000000000000e+00 0.0000000000000000e+00 0.0000000000000000e+00  0.0000000000000000e+00 3.1216148519640946e-16 0.0000000000000000e+00  -5.3307172675619152e-16 3.6839957847868575e-16 0.0000000000000000e+00  -4.6828951815331730e-16 6.0454952734177562e-16 0.0000000000000000e+00  -9.3116614900832000e-16 6.6150617604239979e-16 0.0000000000000000e+00  -1.0768471782914938e-15 9.6528890774121902e-16 0.0000000000000000e+00  -1.4737592046390958e-15 1.0856384174458334e-15 0.0000000000000000e+00  -1.8251731066464599e-15 1.1205026257774971e-15 0.0000000000000000e+00  -2.5087549408345792e-15 1.0094312072006621e-15 0.0000000000000000e+00  -2.9492564749360088e-15 1.1166108781244746e-15 0.0000000000000000e+00  -3.2837413029640389e-15 1.1817391972332961e-15 0.0000000000000000e+00  -3.2157178515308454e-15 1.2374554749006647e-15 0.0000000000000000e+00  -3.5566710086484534e-15 1.2682776368334526e-15 0.0000000000000000e+00  -3.9810560017953606e-15 1.2963167620788115e-15 0.0000000000000000e+00  -4.1689593996800174e-15 1.4236713914043590e-15 0.0000000000000000e+00  -3.9123887140035013e-15 1.5991574193901413e-15 0.0000000000000000e+00  -4.4370468530826045e-15 1.8235232444722441e-15 0.0000000000000000e+00  -4.4556183007903825e-15 2.1061255544974528e-15 0.0000000000000000e+00  -4.8433889266572266e-15 2.4174212926844837e-15 0.0000000000000000e+00  -4.9604690159791682e-15 2.6695006014485513e-15 0.0000000000000000e+00  0.0000000000000000e+00 0.0000000000000000e+00 0.0000000000000000e+00  0.0000000000000000e+00 0.0000000000000000e+00 0.0000000000000000e+00  0.0000000000000000e+00 4.6193878613468174e-16 0.0000000000000000e+00  -3.2343505951739446e-16 6.0756514510906132e-16 0.0000000000000000e+00  -4.0216097120588491e-16 8.0129146412846123e-16 0.0000000000000000e+00  -9.2918231713168323e-16 1.0158220674291353e-15 0.0000000000000000e+00  -1.1135110842567341e-15 1.1996554072269483e-15 0.0000000000000000e+00  -1.4860008623844170e-15 1.5294550346373570e-15 0.0000000000000000e+00  -1.6854313696658332e-15 1.5110230174064526e-15 0.0000000000000000e+00  -2.3038326226057268e-15 1.3430577126202275e-15 0.0000000000000000e+00  -2.3522869977003647e-15 1.3595744481125494e-15 0.0000000000000000e+00  -2.2954004295620135e-15 1.3272423410554726e-15 0.0000000000000000e+00  -2.3038569514494227e-15 1.3931403092854990e-15 0.0000000000000000e+00  -2.6987995004844281e-15 1.5220405328213923e-15 0.0000000000000000e+00  -3.2955324362136567e-15 1.5658134971445137e-15 0.0000000000000000e+00  -3.9644793137028036e-15 1.5525466412826620e-15 0.0000000000000000e+00  -4.0490559437277459e-15 1.7521542082934392e-15 0.0000000000000000e+00  -4.3770074832019929e-15 2.0551484389071840e-15 0.0000000000000000e+00  -4.5245618466066880e-15 2.3539258529017660e-15 0.0000000000000000e+00  -4.9630184360996502e-15 2.6799881456313182e-15 0.0000000000000000e+00  -4.8719056965819121e-15 2.8135210478157785e-15 0.0000000000000000e+00  0.0000000000000000e+00 0.0000000000000000e+00 0.0000000000000000e+00  0.0000000000000000e+00 3.5444537300490605e-16 0.0000000000000000e+00  0.0000000000000000e+00 5.7574990921218330e-16 0.0000000000000000e+00  -4.3545108553418619e-16 7.6211945062528660e-16 0.0000000000000000e+00  -6.8959349697063044e-16 1.0170828105555177e-15 0.0000000000000000e+00  -9.4506978063943490e-16 1.3394770553227405e-15 0.0000000000000000e+00  -1.3716990538708688e-15 1.4463784556920514e-15 0.0000000000000000e+00  -1.5879565586301978e-15 1.7583044794436925e-15 0.0000000000000000e+00  -1.3534566362898068e-15 1.6946497441310106e-15 0.0000000000000000e+00  -1.4647554212006863e-15 1.4419927134264748e-15 0.0000000000000000e+00  -1.1375396288849467e-15 1.3799621598103046e-15 0.0000000000000000e+00  -1.2608781590629879e-15 1.4629354425941554e-15 0.0000000000000000e+00  -1.4407825537984278e-15 1.5733095742823547e-15 0.0000000000000000e+00  -1.7035425472120358e-15 1.8869431087559203e-15 0.0000000000000000e+00  -2.5811237176471113e-15 2.0804667761590972e-15 0.0000000000000000e+00  -3.1230900601528028e-15 2.0084461309576866e-15 0.0000000000000000e+00  -3.9501036077503771e-15 2.0889891666650978e-15 0.0000000000000000e+00  -4.2872265980246504e-15 2.3728110717072218e-15 0.0000000000000000e+00  -4.9634585928975956e-15 2.6579575902291376e-15 0.0000000000000000e+00  -4.9429011456517219e-15 2.8637332616839126e-15 0.0000000000000000e+00  -5.2075627331994976e-15 3.0244525161369131e-15 0.0000000000000000e+00  0.0000000000000000e+00 0.0000000000000000e+00 0.0000000000000000e+00  0.0000000000000000e+00 4.3881545950458833e-16 0.0000000000000000e+00  0.0000000000000000e+00 8.3607920017815666e-16 0.0000000000000000e+00  -7.8613460864047749e-16 1.0647954529987499e-15 0.0000000000000000e+00  -1.0835812815969094e-15 1.1979049239229241e-15 0.0000000000000000e+00  -1.2729611462452350e-15 1.4367027125520721e-15 0.0000000000000000e+00  -1.4669356003913083e-15 1.6999315611113339e-15 0.0000000000000000e+00  -1.2613435410894793e-15 1.7185630817479060e-15 0.0000000000000000e+00  -1.4130064015274750e-15 1.5105220042547006e-15 0.0000000000000000e+00  -1.0658146426831485e-15 1.3933997482299616e-15 0.0000000000000000e+00  -8.6295867518426900e-16 1.2982289646694249e-15 0.0000000000000000e+00  -1.0301808127798708e-15 1.5482970745249348e-15 0.0000000000000000e+00  -1.2404005851353201e-15 2.0322834225716559e-15 0.0000000000000000e+00  -2.0757554658798916e-15 2.3689867244393767e-15 0.0000000000000000e+00  -2.5158358319525998e-15 2.6302502396464160e-15 0.0000000000000000e+00  -3.0258407676616160e-15 2.5503910236619351e-15 0.0000000000000000e+00  -3.7071857414674842e-15 2.5040807827525094e-15 0.0000000000000000e+00  -3.7781754545713308e-15 2.6492588133713026e-15 0.0000000000000000e+00  -4.2455114456977605e-15 2.8318316501502616e-15 0.0000000000000000e+00  -4.6385521502879445e-15 2.9447846224084050e-15 0.0000000000000000e+00  -4.5798971806156656e-15 2.9519989075614495e-15 0.0000000000000000e+00  0.0000000000000000e+00 0.0000000000000000e+00 0.0000000000000000e+00  0.0000000000000000e+00 6.2867066662090464e-16 0.0000000000000000e+00  -3.4092012025383197e-16 1.0525577383123959e-15 0.0000000000000000e+00  -5.8925741110135140e-16 1.4977748194622310e-15 0.0000000000000000e+00  -8.1322450366009885e-16 1.6165378374259211e-15 0.0000000000000000e+00  -1.6711905861777801e-15 1.5718421779211576e-15 0.0000000000000000e+00  -1.3018141589152729e-15 1.6971843451855919e-15 0.0000000000000000e+00  -1.3717721529675654e-15 1.5932595747156504e-15 0.0000000000000000e+00  -1.0197469998144205e-15 1.4265069002351328e-15 0.0000000000000000e+00  -1.0123733069571017e-15 1.3333524136943197e-15 0.0000000000000000e+00  -1.1630905087954986e-15 1.4668063175696236e-15 0.0000000000000000e+00  -1.7790190322644336e-15 1.7540243898136555e-15 0.0000000000000000e+00  -2.3137098227981657e-15 2.2982382887328535e-15 0.0000000000000000e+00  -2.3047938959961797e-15 2.6220618817032954e-15 0.0000000000000000e+00  -2.0308678579496564e-15 2.8101737736253635e-15 0.0000000000000000e+00  -2.1694804999276696e-15 2.8363052871065566e-15 0.0000000000000000e+00  -2.4399422479003808e-15 2.7325873527407566e-15 0.0000000000000000e+00  -2.5788455759918321e-15 2.6467691860839891e-15 0.0000000000000000e+00  -2.7747342285169498e-15 2.6467219077036636e-15 0.0000000000000000e+00  -3.0178877133293636e-15 2.6824539594705975e-15 0.0000000000000000e+00  -3.0618831249851140e-15 2.5027057303336183e-15 0.0000000000000000e+00  0.0000000000000000e+00 0.0000000000000000e+00 0.0000000000000000e+00  0.0000000000000000e+00 7.5551016740084245e-16 0.0000000000000000e+00  0.0000000000000000e+00 1.3600842125200852e-15 0.0000000000000000e+00  -3.7386189956796458e-16 1.7388338888652676e-15 0.0000000000000000e+00  -4.8794511283127313e-16 1.9836740429954463e-15 0.0000000000000000e+00  -8.1161701032299161e-16 2.0372011147905967e-15 0.0000000000000000e+00  -1.1562211404578766e-15 1.6903949060156653e-15 0.0000000000000000e+00  -1.0857239317419813e-15 1.3743561180948067e-15 0.0000000000000000e+00  -8.4440770924116222e-16 1.4599670380786278e-15 0.0000000000000000e+00  -8.2794163055254234e-16 1.5124787564084324e-15 0.0000000000000000e+00  -1.2897215546508854e-15 1.7906522402440886e-15 0.0000000000000000e+00  -1.8606653199357047e-15 2.2258346187821795e-15 0.0000000000000000e+00  -2.1448887512260648e-15 2.3892044899647768e-15 0.0000000000000000e+00  -1.9249246590899615e-15 2.5037387331356079e-15 0.0000000000000000e+00  -2.1303000624576105e-15 2.5913020058212075e-15 0.0000000000000000e+00  -1.5875594538057212e-15 2.6726628075468100e-15 0.0000000000000000e+00  -7.5817143199463952e-16 2.5344839502444911e-15 0.0000000000000000e+00  -9.3243103917621332e-16 2.3622565231154102e-15 0.0000000000000000e+00  -5.9605329514984264e-16 2.2643682797159285e-15 0.0000000000000000e+00  -7.6431239862751391e-16 2.1344032016772519e-15 0.0000000000000000e+00  -4.9583593477080241e-16 1.9506042832130705e-15 0.0000000000000000e+00  0.0000000000000000e+00 0.0000000000000000e+00 0.0000000000000000e+00  0.0000000000000000e+00 9.0722571997844175e-16 0.0000000000000000e+00  0.0000000000000000e+00 1.5844313727473885e-15 0.0000000000000000e+00  -5.3753835798990062e-16 1.8832995615520382e-15 0.0000000000000000e+00  -7.6931618093815633e-16 2.1176234986480853e-15 0.0000000000000000e+00  -5.4588079407648030e-16 2.2385322533267693e-15 0.0000000000000000e+00  -6.1471712679866576e-16 1.9353668944501189e-15 0.0000000000000000e+00  -5.8438133529922638e-16 1.3840448241470104e-15 0.0000000000000000e+00  -1.0508042828425927e-15 1.4042118155503942e-15 0.0000000000000000e+00  -7.4032249456276863e-16 1.6954033223059222e-15 0.0000000000000000e+00  -1.2132160382791951e-15 2.0794131327618105e-15 0.0000000000000000e+00  -1.5303458363514010e-15 2.5294087626019284e-15 0.0000000000000000e+00  -1.5198066726467770e-15 2.4378132689312779e-15 0.0000000000000000e+00  -1.3804430225606838e-15 2.3004951561408505e-15 0.0000000000000000e+00  -1.1876795705845551e-15 2.0934597973563614e-15 0.0000000000000000e+00  -6.4881421154530142e-16 2.1719578268416174e-15 0.0000000000000000e+00  0.0000000000000000e+00 2.1329407016716134e-15 0.0000000000000000e+00  3.8291884709132748e-16 1.9223630714907982e-15 0.0000000000000000e+00  5.4842202023904159e-16 1.8038966401766104e-15 0.0000000000000000e+00  8.3261533804925906e-16 1.6108638505505512e-15 0.0000000000000000e+00  8.4213566826630166e-16 1.4802381124312008e-15 0.0000000000000000e+00  0.0000000000000000e+00 0.0000000000000000e+00 0.0000000000000000e+00  0.0000000000000000e+00 1.0747551114909041e-15 0.0000000000000000e+00  -3.3434577770005692e-16 1.7042606490064884e-15 0.0000000000000000e+00  0.0000000000000000e+00 2.0219558978900974e-15 0.0000000000000000e+00  0.0000000000000000e+00 2.2816215781712310e-15 0.0000000000000000e+00  -3.9244215075067381e-16 2.2117907100113926e-15 0.0000000000000000e+00  -5.5903483090080959e-16 1.9646541688515038e-15 0.0000000000000000e+00  0.0000000000000000e+00 1.6582460032741096e-15 0.0000000000000000e+00  -1.0789096443053096e-15 1.6