<?xml version="1.0"?>
<VTKFile type="UnstructuredGrid"  version="0.1"  >
<UnstructuredGrid>
<Piece  NumberOfPoints="6" NumberOfCells="5">
<Points>
<DataArray  type="Float64"  NumberOfComponents="3"  format="ascii">0 0 0  0.2 0 0  0.4 0 0  0.6 0 0  0.8 0 0  1 0 0  </DataArray>
</Points>
<Cells>
<DataArray  type="UInt32"  Name="connectivity"  format="ascii">0 1  1 2  2 3  3 4  4 5  </DataArray>
<DataArray  type="UInt32"  Name="offsets"  format="ascii">2 4 6 8 10 </DataArray>
<DataArray  type="UInt8"  Name="types"  format="ascii">3 3 3 3 3 </DataArray>
</Cells>
<CellData  Scalars="u"> 
<DataArray  type="Float64"  Name="u"  format="ascii">0.0000000000000000e+00   5.2232667494790108e-02   1.7004474982983030e-02   1.3816408322631665e-03   5.1896697969468191e-06   </DataArray> 
</CellData> 
</Piece>
</UnstructuredGrid>
</VTKFile>