<?xml version="1.0"?>
<VTKFile type="UnstructuredGrid"  version="0.1"  >
<UnstructuredGrid>
<Piece  NumberOfPoints="441" NumberOfCells="800">
<Points>
<DataArray  type="Float64"  NumberOfComponents="3"  format="ascii">0 0 0  0.05 0 0  0.1 0 0  0.15 0 0  0.2 0 0  0.25 0 0  0.3 0 0  0.35 0 0  0.4 0 0  0.45 0 0  0.5 0 0  0.55 0 0  0.6 0 0  0.65 0 0  0.7 0 0  0.75 0 0  0.8 0 0  0.85 0 0  0.9 0 0  0.95 0 0  1 0 0  0 0.05 0  0.05 0.05 0  0.1 0.05 0  0.15 0.05 0  0.2 0.05 0  0.25 0.05 0  0.3 0.05 0  0.35 0.05 0  0.4 0.05 0  0.45 0.05 0  0.5 0.05 0  0.55 0.05 0  0.6 0.05 0  0.65 0.05 0  0.7 0.05 0  0.75 0.05 0  0.8 0.05 0  0.85 0.05 0  0.9 0.05 0  0.95 0.05 0  1 0.05 0  0 0.1 0  0.05 0.1 0  0.1 0.1 0  0.15 0.1 0  0.2 0.1 0  0.25 0.1 0  0.3 0.1 0  0.35 0.1 0  0.4 0.1 0  0.45 0.1 0  0.5 0.1 0  0.55 0.1 0  0.6 0.1 0  0.65 0.1 0  0.7 0.1 0  0.75 0.1 0  0.8 0.1 0  0.85 0.1 0  0.9 0.1 0  0.95 0.1 0  1 0.1 0  0 0.15 0  0.05 0.15 0  0.1 0.15 0  0.15 0.15 0  0.2 0.15 0  0.25 0.15 0  0.3 0.15 0  0.35 0.15 0  0.4 0.15 0  0.45 0.15 0  0.5 0.15 0  0.55 0.15 0  0.6 0.15 0  0.65 0.15 0  0.7 0.15 0  0.75 0.15 0  0.8 0.15 0  0.85 0.15 0  0.9 0.15 0  0.95 0.15 0  1 0.15 0  0 0.2 0  0.05 0.2 0  0.1 0.2 0  0.15 0.2 0  0.2 0.2 0  0.25 0.2 0  0.3 0.2 0  0.35 0.2 0  0.4 0.2 0  0.45 0.2 0  0.5 0.2 0  0.55 0.2 0  0.6 0.2 0  0.65 0.2 0  0.7 0.2 0  0.75 0.2 0  0.8 0.2 0  0.85 0.2 0  0.9 0.2 0  0.95 0.2 0  1 0.2 0  0 0.25 0  0.05 0.25 0  0.1 0.25 0  0.15 0.25 0  0.2 0.25 0  0.25 0.25 0  0.3 0.25 0  0.35 0.25 0  0.4 0.25 0  0.45 0.25 0  0.5 0.25 0  0.55 0.25 0  0.6 0.25 0  0.65 0.25 0  0.7 0.25 0  0.75 0.25 0  0.8 0.25 0  0.85 0.25 0  0.9 0.25 0  0.95 0.25 0  1 0.25 0  0 0.3 0  0.05 0.3 0  0.1 0.3 0  0.15 0.3 0  0.2 0.3 0  0.25 0.3 0  0.3 0.3 0  0.35 0.3 0  0.4 0.3 0  0.45 0.3 0  0.5 0.3 0  0.55 0.3 0  0.6 0.3 0  0.65 0.3 0  0.7 0.3 0  0.75 0.3 0  0.8 0.3 0  0.85 0.3 0  0.9 0.3 0  0.95 0.3 0  1 0.3 0  0 0.35 0  0.05 0.35 0  0.1 0.35 0  0.15 0.35 0  0.2 0.35 0  0.25 0.35 0  0.3 0.35 0  0.35 0.35 0  0.4 0.35 0  0.45 0.35 0  0.5 0.35 0  0.55 0.35 0  0.6 0.35 0  0.65 0.35 0  0.7 0.35 0  0.75 0.35 0  0.8 0.35 0  0.85 0.35 0  0.9 0.35 0  0.95 0.35 0  1 0.35 0  0 0.4 0  0.05 0.4 0  0.1 0.4 0  0.15 0.4 0  0.2 0.4 0  0.25 0.4 0  0.3 0.4 0  0.35 0.4 0  0.4 0.4 0  0.45 0.4 0  0.5 0.4 0  0.55 0.4 0  0.6 0.4 0  0.65 0.4 0  0.7 0.4 0  0.75 0.4 0  0.8 0.4 0  0.85 0.4 0  0.9 0.4 0  0.95 0.4 0  1 0.4 0  0 0.45 0  0.05 0.45 0  0.1 0.45 0  0.15 0.45 0  0.2 0.45 0  0.25 0.45 0  0.3 0.45 0  0.35 0.45 0  0.4 0.45 0  0.45 0.45 0  0.5 0.45 0  0.55 0.45 0  0.6 0.45 0  0.65 0.45 0  0.7 0.45 0  0.75 0.45 0  0.8 0.45 0  0.85 0.45 0  0.9 0.45 0  0.95 0.45 0  1 0.45 0  0 0.5 0  0.05 0.5 0  0.1 0.5 0  0.15 0.5 0  0.2 0.5 0  0.25 0.5 0  0.3 0.5 0  0.35 0.5 0  0.4 0.5 0  0.45 0.5 0  0.5 0.5 0  0.55 0.5 0  0.6 0.5 0  0.65 0.5 0  0.7 0.5 0  0.75 0.5 0  0.8 0.5 0  0.85 0.5 0  0.9 0.5 0  0.95 0.5 0  1 0.5 0  0 0.55 0  0.05 0.55 0  0.1 0.55 0  0.15 0.55 0  0.2 0.55 0  0.25 0.55 0  0.3 0.55 0  0.35 0.55 0  0.4 0.55 0  0.45 0.55 0  0.5 0.55 0  0.55 0.55 0  0.6 0.55 0  0.65 0.55 0  0.7 0.55 0  0.75 0.55 0  0.8 0.55 0  0.85 0.55 0  0.9 0.55 0  0.95 0.55 0  1 0.55 0  0 0.6 0  0.05 0.6 0  0.1 0.6 0  0.15 0.6 0  0.2 0.6 0  0.25 0.6 0  0.3 0.6 0  0.35 0.6 0  0.4 0.6 0  0.45 0.6 0  0.5 0.6 0  0.55 0.6 0  0.6 0.6 0  0.65 0.6 0  0.7 0.6 0  0.75 0.6 0  0.8 0.6 0  0.85 0.6 0  0.9 0.6 0  0.95 0.6 0  1 0.6 0  0 0.65 0  0.05 0.65 0  0.1 0.65 0  0.15 0.65 0  0.2 0.65 0  0.25 0.65 0  0.3 0.65 0  0.35 0.65 0  0.4 0.65 0  0.45 0.65 0  0.5 0.65 0  0.55 0.65 0  0.6 0.65 0  0.65 0.65 0  0.7 0.65 0  0.75 0.65 0  0.8 0.65 0  0.85 0.65 0  0.9 0.65 0  0.95 0.65 0  1 0.65 0  0 0.7 0  0.05 0.7 0  0.1 0.7 0  0.15 0.7 0  0.2 0.7 0  0.25 0.7 0  0.3 0.7 0  0.35 0.7 0  0.4 0.7 0  0.45 0.7 0  0.5 0.7 0  0.55 0.7 0  0.6 0.7 0  0.65 0.7 0  0.7 0.7 0  0.75 0.7 0  0.8 0.7 0  0.85 0.7 0  0.9 0.7 0  0.95 0.7 0  1 0.7 0  0 0.75 0  0.05 0.75 0  0.1 0.75 0  0.15 0.75 0  0.2 0.75 0  0.25 0.75 0  0.3 0.75 0  0.35 0.75 0  0.4 0.75 0  0.45 0.75 0  0.5 0.75 0  0.55 0.75 0  0.6 0.75 0  0.65 0.75 0  0.7 0.75 0  0.75 0.75 0  0.8 0.75 0  0.85 0.75 0  0.9 0.75 0  0.95 0.75 0  1 0.75 0  0 0.8 0  0.05 0.8 0  0.1 0.8 0  0.15 0.8 0  0.2 0.8 0  0.25 0.8 0  0.3 0.8 0  0.35 0.8 0  0.4 0.8 0  0.45 0.8 0  0.5 0.8 0  0.55 0.8 0  0.6 0.8 0  0.65 0.8 0  0.7 0.8 0  0.75 0.8 0  0.8 0.8 0  0.85 0.8 0  0.9 0.8 0  0.95 0.8 0  1 0.8 0  0 0.85 0  0.05 0.85 0  0.1 0.85 0  0.15 0.85 0  0.2 0.85 0  0.25 0.85 0  0.3 0.85 0  0.35 0.85 0  0.4 0.85 0  0.45 0.85 0  0.5 0.85 0  0.55 0.85 0  0.6 0.85 0  0.65 0.85 0  0.7 0.85 0  0.75 0.85 0  0.8 0.85 0  0.85 0.85 0  0.9 0.85 0  0.95 0.85 0  1 0.85 0  0 0.9 0  0.05 0.9 0  0.1 0.9 0  0.15 0.9 0  0.2 0.9 0  0.25 0.9 0  0.3 0.9 0  0.35 0.9 0  0.4 0.9 0  0.45 0.9 0  0.5 0.9 0  0.55 0.9 0  0.6 0.9 0  0.65 0.9 0  0.7 0.9 0  0.75 0.9 0  0.8 0.9 0  0.85 0.9 0  0.9 0.9 0  0.95 0.9 0  1 0.9 0  0 0.95 0  0.05 0.95 0  0.1 0.95 0  0.15 0.95 0  0.2 0.95 0  0.25 0.95 0  0.3 0.95 0  0.35 0.95 0  0.4 0.95 0  0.45 0.95 0  0.5 0.95 0  0.55 0.95 0  0.6 0.95 0  0.65 0.95 0  0.7 0.95 0  0.75 0.95 0  0.8 0.95 0  0.85 0.95 0  0.9 0.95 0  0.95 0.95 0  1 0.95 0  0 1 0  0.05 1 0  0.1 1 0  0.15 1 0  0.2 1 0  0.25 1 0  0.3 1 0  0.35 1 0  0.4 1 0  0.45 1 0  0.5 1 0  0.55 1 0  0.6 1 0  0.65 1 0  0.7 1 0  0.75 1 0  0.8 1 0  0.85 1 0  0.9 1 0  0.95 1 0  1 1 0  </DataArray>
</Points>
<Cells>
[...]
<PointData  Scalars="u"> 
<DataArray  type="Float64"  Name="u"  format="ascii">0.0000000000000000e+00  0.0000000000000000e+00  0.0000000000000000e+00  0.0000000000000000e+00  0.0000000000000000e+00  0.0000000000000000e+00  0.0000000000000000e+00  0.0000000000000000e+00  0.0000000000000000e+00  0.0000000000000000e+00  0.0000000000000000e+00  0.0000000000000000e+00  0.0000000000000000e+00  0.0000000000000000e+00  0.0000000000000000e+00  0.0000000000000000e+00  0.0000000000000000e+00  0.0000000000000000e+00  0.0000000000000000e+00  0.0000000000000000e+00  0.0000000000000000e+00  0.0000000000000000e+00  -4.7085841900109071e-04  1.3482631978232781e-02  2.5573029286884725e-02  3.4095656407730830e-02  3.7586858368010650e-02  3.7206360293769704e-02  3.4094615478351423e-02  2.8887763069765232e-02  2.2059733150550431e-02  1.4145144071023710e-02  5.7493788942399680e-03  -2.5402810526464021e-03  -1.0239542745845596e-02  -1.7006713117708600e-02  -2.2631098857378944e-02  -2.6942157741633502e-02  -2.9570907300126639e-02  -2.9696355654163918e-02  -2.7725129337060200e-02  -3.4137874073220623e-02  0.0000000000000000e+00  9.9057477686017980e-03  2.8146438712529434e-02  4.5729571442590648e-02  5.8016578422151292e-02  6.3586340123833643e-02  6.3329158473157954e-02  5.8393943469493149e-02  4.9794777233638364e-02  3.8464232174101949e-02  2.5347398806788834e-02  1.1399338049170905e-02  -2.4855049055290579e-03  -1.5545537691710876e-02  -2.7187139923750075e-02  -3.6965304789538744e-02  -4.4497238062495108e-02  -4.9353738736163250e-02  -5.1321960412338108e-02  -5.2081786812206862e-02  -5.8650957893289522e-02  0.0000000000000000e+00  1.9791133127301287e-02  4.2783244830940856e-02  6.2554616577872091e-02  7.5819465867528954e-02  8.1971031067199898e-02  8.1495864329350007e-02  7.5345872137367501e-02  6.4633181104910439e-02  5.0503169593122094e-02  3.4120656271437247e-02  1.6630235034145038e-02  -9.0723834145237591e-04  -1.7571653155447821e-02  -3.2613290419306468e-02  -4.5448411463104021e-02  -5.5634422465565915e-02  -6.2904977445810042e-02  -6.7470980823850599e-02  -7.0835535893863363e-02  -7.6433575401909551e-02  0.0000000000000000e+00  2.7199143338526827e-02  5.3787080666369481e-02  7.4859207801484834e-02  8.8533147272242083e-02  9.4668864291009069e-02  9.3790948315434094e-02  8.6827063116933209e-02  7.4874870502437199e-02  5.9130996053645128e-02  4.0842186323416581e-02  2.1233635175245080e-02  1.4411598200295037e-03  -1.7540996439176317e-02  -3.4891622579281759e-02  -4.9977562194444804e-02  -6.2369289127562080e-02  -7.1895627754296490e-02  -7.8767336475198013e-02  -8.3745144476949807e-02  -8.8221507403259819e-02  0.0000000000000000e+00  3.1634818516828048e-02  6.0718761092593228e-02  8.2884196442352356e-02  9.6786736345359017e-02  1.0273709935243629e-01  1.0152161897948202e-01  9.4097369816703261e-02  8.1531547301312887e-02  6.5009755574862951e-02  4.5780068485124392e-02  2.5075076155400666e-02  4.0425746793192972e-03  -1.6307053837794589e-02  -3.5136323285013329e-02  -5.1805686705798965e-02  -6.5895150572018141e-02  -7.7221482650203579e-02  -8.5798360986450772e-02  -9.1710170244259523e-02  -9.5153580834254792e-02  0.0000000000000000e+00  3.3806167511884588e-02  6.4258354171565280e-02  8.7060006625764505e-02  1.0107187278504760e-01  1.0691467222326312e-01  1.0555525929564387e-01  9.7995351330534566e-02  8.5293591419290993e-02  6.8601914705939140e-02  4.9128733421890149e-02  2.8071866995131339e-02  6.5514204488856288e-03  -1.4442408983392194e-02  -3.4085698305566674e-02  -5.1745655008556962e-02  -6.6991125822282296e-02  -7.9566791319091099e-02  -8.9255244130369074e-02  -9.5636753307434347e-02  -9.8223084743655542e-02  0.0000000000000000e+00  3.4328650564146787e-02  6.5098271964610169e-02  8.8037714605382622e-02  1.0204786191433139e-01  1.0786272620762632e-01  1.0653952168133742e-01  9.9120947162787645e-02  8.6654141125118309e-02  7.0244314632227370e-02  5.1042033739663172e-02  3.0187872079909091e-02  8.7512188161576240e-03  -1.2318247123588031e-02  -3.2224130511219924e-02  -5.0342542454630143e-02  -6.6218253908056177e-02  -7.9508699098649022e-02  -8.9799504794817880e-02  -9.6334414589370226e-02  -9.8248674521833529e-02  0.0000000000000000e+00  3.3672158801427793e-02  6.3908012540844217e-02  8.6508422667558080e-02  1.0034494168801068e-01  1.0614918255390612e-01  1.0499764041833168e-01  9.7937737652744869e-02  8.5987830959298420e-02  7.0198701703948138e-02  5.1653829184253860e-02  3.1424610346934077e-02  1.0517560679395023e-02  -1.0168626793044583e-02  -2.9871703953327885e-02  -4.7978028082130385e-02  -6.4007307423572982e-02  -7.7540499103204596e-02  -8.8020670995708955e-02  -9.4489721310673375e-02  -9.5894757485189677e-02  0.0000000000000000e+00  3.2188915560009801e-02  6.1227464016424309e-02  8.3058342483210978e-02  9.6519205377316522e-02  1.0227940729700431e-01  1.0137687350522950e-01  9.4826102762721715e-02  8.3599294190621426e-02  6.8684171200251401e-02  5.1090183766788894e-02  3.1813079191344157e-02  1.1790168989592472e-02  -8.1364784574151465e-03  -2.7243060420246809e-02  -4.4929958572345774e-02  -6.0699439909505951e-02  -7.4077955936986795e-02  -8.4420190695794470e-02  -9.0667277562762674e-02  -9.1696060908435018e-02  0.0000000000000000e+00  3.0131496549265491e-02  5.7468226860262442e-02  7.8163064988404654e-02  9.1042350074238609e-02  9.6686370489185089e-02  9.6057295966974501e-02  9.0108339009092417e-02  7.9748905519861621e-02  6.5894351568399387e-02  4.9474648094982893e-02  3.1405821331985349e-02  1.2552128759436435e-02  -6.3047940481939877e-03  -2.4483823007155698e-02  -4.1405661371033929e-02  -5.6567295064806289e-02  -6.9465423890094927e-02  -7.9413075566532557e-02  -8.5324278137626428e-02  -8.6080330418784906e-02  0.0000000000000000e+00  2.7679158359939806e-02  5.2936934182176369e-02  7.2194015630072453e-02  8.4297109096018438e-02  8.9731158054984259e-02  8.9362154458161258e-02  8.4062407553436996e-02  7.4665114840409802e-02  6.2005453292146184e-02  4.6929365444739489e-02  3.0269892791044872e-02  1.2815244375868180e-02  -4.7168223427810759e-03  -2.1692709139427214e-02  -3.7561329618753261e-02  -5.1828079498697499e-02  -6.3983326643143393e-02  -7.3336186707118958e-02  -7.8826396449657082e-02  -7.9387405984327530e-02  0.0000000000000000e+00  2.4958015939345830e-02  4.7858177798699802e-02  6.5434892659540320e-02  7.6587490169640324e-02  8.1710251322726787e-02  8.1563876006091593e-02  7.6927887073270626e-02  6.8550034185963574e-02  5.7179349798859400e-02  4.3573928359560463e-02  2.8480989299962158e-02  1.2609901361663418e-02  -3.3890554099683563e-03  -1.8935178737389865e-02  -3.3514076030084071e-02  -4.6652956818453849e-02  -5.7856275655806311e-02  -6.6458650906681752e-02  -7.1462969688127015e-02  -7.1885295424822165e-02  0.0000000000000000e+00  2.2056133848203738e-02  4.2394826845078490e-02  5.8099620938845263e-02  6.8151455683753581e-02  7.2863704906603682e-02  7.2889831154228299e-02  6.8910535353916696e-02  6.1582464781278656e-02  5.1564372816811206e-02  3.9523542268517668e-02  2.6118871474950459e-02  1.1978123057676782e-02  -2.3196493434109637e-03  -1.6252181039692767e-02  -2.9350086628581459e-02  -4.1174553940964420e-02  -5.1261117390272733e-02  -5.8992308969102854e-02  -6.3460442767879544e-02  -6.3783539478080006e-02  0.0000000000000000e+00  1.9034559648671508e-02  3.6664104586480464e-02  5.0348095505380629e-02  5.9173489693222732e-02  6.3384151773100847e-02  6.3528434701969394e-02  6.0186106912584102e-02  5.3919799866261199e-02  4.5295455654018629e-02  3.4887392614279089e-02  2.3264025520053348e-02  1.0968848095288466e-02  -1.4940162225170416e-03  -1.3666089701007321e-02  -2.5130634956365965e-02  -3.5493328628321122e-02  -4.4334494785213174e-02  -5.1101370223533997e-02  -5.4993942203134104e-02  -5.5244328070637519e-02  0.0000000000000000e+00  1.5935238894619612e-02  3.0749836992086124e-02  4.2299140855709960e-02  4.9795821893135785e-02  5.3425354016852805e-02  5.3635064743838418e-02  5.0904062347327944e-02  4.5699929790318131e-02  3.8494478385976721e-02  2.9767599494030229e-02  1.9995432438855768e-02  9.6347692504110943e-03  -8.8864425392661515e-04  -1.1184985736631336e-02  -2.0896843127684372e-02  -2.9683123536995329e-02  -3.7179732948278477e-02  -4.2911013511201780e-02  -4.6197130948946015e-02  -4.6391771979315370e-02  0.0000000000000000e+00  1.2786654402152361e-02  2.4711624894438691e-02  3.4040781032023168e-02  4.0127900589237660e-02  4.3109899536958908e-02  4.3337734799193818e-02  4.1191354960884455e-02  3.7043399271897884e-02  3.1271052338537844e-02  2.4258860615780156e-02  1.6389271027508479e-02  8.0302730430309704e-03  -4.7378659849309262e-04  -8.8059337772694504e-03  -1.6673654193829671e-02  -2.3796111078692204e-02  -2.9873088692446401e-02  -3.4515005089010571e-02  -3.7170609921481017e-02  -3.7319687940561647e-02  0.0000000000000000e+00  9.6079723075047710e-03  1.8591704404185457e-02  2.5638275080476954e-02  3.0254253081310089e-02  3.2535997751037465e-02  3.2742436707116164e-02  3.1156281770820721e-02  2.8055896597798731e-02  2.3723834883826522e-02  1.8448772796891329e-02  1.2518400864813284e-02  6.2102010876806156e-03  -2.1536302699514651e-04  -6.5175710605186879e-03  -1.2473231215277615e-02  -1.7867180858771658e-02  -2.2469222557573339e-02  -2.5982175287899294e-02  -2.7988996326561447e-02  -2.8098207587640363e-02  0.0000000000000000e+00  6.4120123717047433e-03  1.2419884097433014e-02  1.7140315749169719e-02  2.0240931195640143e-02  2.1783345202172170e-02  2.1938036563918809e-02  2.0892246014482797e-02  1.8830918100870588e-02  1.5942188758945219e-02  1.2418601209051520e-02  8.4523397281806890e-03  4.2290991671148151e-03  -7.6427088316326940e-05  -4.3023385730382706e-03  -8.2980471690540670e-03  -1.1917996364090907e-02  -1.5006385337506027e-02  -1.7362833540677462e-02  -1.8707792867797977e-02  -1.8779651048508015e-02  0.0000000000000000e+00  3.2067314415207431e-03  6.2176233054817417e-03  8.5844910484190046e-03  1.0141096559647660e-02  1.0918688730124436e-02  1.1001108009569589e-02  1.0481816141343818e-02  9.4529373103037963e-03  8.0085010425224295e-03  6.2447865314667625e-03  4.2580064232910150e-03  2.1412169806269026e-03  -1.7920620445607466e-05  -2.1380334434490376e-03  -4.1432952215479666e-03  -5.9603105080304605e-03  -7.5104824666489701e-03  -8.6927641770407765e-03  -9.3667208989606197e-03  -9.4017417852879336e-03  0.0000000000000000e+00  0.0000000000000000e+00  0.0000000000000000e+00  0.0000000000000000e+00  0.0000000000000000e+00  0.0000000000000000e+00  0.0000000000000000e+00  0.0000000000000000e+00  0.0000000000000000e+00  0.0000000000000000e+00  0.0000000000000000e+00  0.0000000000000000e+00  0.0000000000000000e+00  0.0000000000000000e+00  0.0000000000000000e+00  0.0000000000000000e+00  0.0000000000000000e+00  0.0000000000000000e+00  0.0000000000000000e+00  0.0000000000000000e+00  0.0000000000000000e+00  </DataArray> 
</PointData> 
</Piece>
</UnstructuredGrid>
</VTKFile>