<?xml version="1.0"?>
<VTKFile type="UnstructuredGrid"  version="0.1"  >
<UnstructuredGrid>
<Piece  NumberOfPoints="441" NumberOfCells="800">
<Points>
<DataArray  type="Float64"  NumberOfComponents="3"  format="ascii">0 0 0  0.05 0 0  0.1 0 0  0.15 0 0  0.2 0 0  0.25 0 0  0.3 0 0  0.35 0 0  0.4 0 0  0.45 0 0  0.5 0 0  0.55 0 0  0.6 0 0  0.65 0 0  0.7 0 0  0.75 0 0  0.8 0 0  0.85 0 0  0.9 0 0  0.95 0 0  1 0 0  0 0.05 0  0.05 0.05 0  0.1 0.05 0  0.15 0.05 0  0.2 0.05 0  0.25 0.05 0  0.3 0.05 0  0.35 0.05 0  0.4 0.05 0  0.45 0.05 0  0.5 0.05 0  0.55 0.05 0  0.6 0.05 0  0.65 0.05 0  0.7 0.05 0  0.75 0.05 0  0.8 0.05 0  0.85 0.05 0  0.9 0.05 0  0.95 0.05 0  1 0.05 0  0 0.1 0  0.05 0.1 0  0.1 0.1 0  0.15 0.1 0  0.2 0.1 0  0.25 0.1 0  0.3 0.1 0  0.35 0.1 0  0.4 0.1 0  0.45 0.1 0  0.5 0.1 0  0.55 0.1 0  0.6 0.1 0  0.65 0.1 0  0.7 0.1 0  0.75 0.1 0  0.8 0.1 0  0.85 0.1 0  0.9 0.1 0  0.95 0.1 0  1 0.1 0  0 0.15 0  0.05 0.15 0  0.1 0.15 0  0.15 0.15 0  0.2 0.15 0  0.25 0.15 0  0.3 0.15 0  0.35 0.15 0  0.4 0.15 0  0.45 0.15 0  0.5 0.15 0  0.55 0.15 0  0.6 0.15 0  0.65 0.15 0  0.7 0.15 0  0.75 0.15 0  0.8 0.15 0  0.85 0.15 0  0.9 0.15 0  0.95 0.15 0  1 0.15 0  0 0.2 0  0.05 0.2 0  0.1 0.2 0  0.15 0.2 0  0.2 0.2 0  0.25 0.2 0  0.3 0.2 0  0.35 0.2 0  0.4 0.2 0  0.45 0.2 0  0.5 0.2 0  0.55 0.2 0  0.6 0.2 0  0.65 0.2 0  0.7 0.2 0  0.75 0.2 0  0.8 0.2 0  0.85 0.2 0  0.9 0.2 0  0.95 0.2 0  1 0.2 0  0 0.25 0  0.05 0.25 0  0.1 0.25 0  0.15 0.25 0  0.2 0.25 0  0.25 0.25 0  0.3 0.25 0  0.35 0.25 0  0.4 0.25 0  0.45 0.25 0  0.5 0.25 0  0.55 0.25 0  0.6 0.25 0  0.65 0.25 0  0.7 0.25 0  0.75 0.25 0  0.8 0.25 0  0.85 0.25 0  0.9 0.25 0  0.95 0.25 0  1 0.25 0  0 0.3 0  0.05 0.3 0  0.1 0.3 0  0.15 0.3 0  0.2 0.3 0  0.25 0.3 0  0.3 0.3 0  0.35 0.3 0  0.4 0.3 0  0.45 0.3 0  0.5 0.3 0  0.55 0.3 0  0.6 0.3 0  0.65 0.3 0  0.7 0.3 0  0.75 0.3 0  0.8 0.3 0  0.85 0.3 0  0.9 0.3 0  0.95 0.3 0  1 0.3 0  0 0.35 0  0.05 0.35 0  0.1 0.35 0  0.15 0.35 0  0.2 0.35 0  0.25 0.35 0  0.3 0.35 0  0.35 0.35 0  0.4 0.35 0  0.45 0.35 0  0.5 0.35 0  0.55 0.35 0  0.6 0.35 0  0.65 0.35 0  0.7 0.35 0  0.75 0.35 0  0.8 0.35 0  0.85 0.35 0  0.9 0.35 0  0.95 0.35 0  1 0.35 0  0 0.4 0  0.05 0.4 0  0.1 0.4 0  0.15 0.4 0  0.2 0.4 0  0.25 0.4 0  0.3 0.4 0  0.35 0.4 0  0.4 0.4 0  0.45 0.4 0  0.5 0.4 0  0.55 0.4 0  0.6 0.4 0  0.65 0.4 0  0.7 0.4 0  0.75 0.4 0  0.8 0.4 0  0.85 0.4 0  0.9 0.4 0  0.95 0.4 0  1 0.4 0  0 0.45 0  0.05 0.45 0  0.1 0.45 0  0.15 0.45 0  0.2 0.45 0  0.25 0.45 0  0.3 0.45 0  0.35 0.45 0  0.4 0.45 0  0.45 0.45 0  0.5 0.45 0  0.55 0.45 0  0.6 0.45 0  0.65 0.45 0  0.7 0.45 0  0.75 0.45 0  0.8 0.45 0  0.85 0.45 0  0.9 0.45 0  0.95 0.45 0  1 0.45 0  0 0.5 0  0.05 0.5 0  0.1 0.5 0  0.15 0.5 0  0.2 0.5 0  0.25 0.5 0  0.3 0.5 0  0.35 0.5 0  0.4 0.5 0  0.45 0.5 0  0.5 0.5 0  0.55 0.5 0  0.6 0.5 0  0.65 0.5 0  0.7 0.5 0  0.75 0.5 0  0.8 0.5 0  0.85 0.5 0  0.9 0.5 0  0.95 0.5 0  1 0.5 0  0 0.55 0  0.05 0.55 0  0.1 0.55 0  0.15 0.55 0  0.2 0.55 0  0.25 0.55 0  0.3 0.55 0  0.35 0.55 0  0.4 0.55 0  0.45 0.55 0  0.5 0.55 0  0.55 0.55 0  0.6 0.55 0  0.65 0.55 0  0.7 0.55 0  0.75 0.55 0  0.8 0.55 0  0.85 0.55 0  0.9 0.55 0  0.95 0.55 0  1 0.55 0  0 0.6 0  0.05 0.6 0  0.1 0.6 0  0.15 0.6 0  0.2 0.6 0  0.25 0.6 0  0.3 0.6 0  0.35 0.6 0  0.4 0.6 0  0.45 0.6 0  0.5 0.6 0  0.55 0.6 0  0.6 0.6 0  0.65 0.6 0  0.7 0.6 0  0.75 0.6 0  0.8 0.6 0  0.85 0.6 0  0.9 0.6 0  0.95 0.6 0  1 0.6 0  0 0.65 0  0.05 0.65 0  0.1 0.65 0  0.15 0.65 0  0.2 0.65 0  0.25 0.65 0  0.3 0.65 0  0.35 0.65 0  0.4 0.65 0  0.45 0.65 0  0.5 0.65 0  0.55 0.65 0  0.6 0.65 0  0.65 0.65 0  0.7 0.65 0  0.75 0.65 0  0.8 0.65 0  0.85 0.65 0  0.9 0.65 0  0.95 0.65 0  1 0.65 0  0 0.7 0  0.05 0.7 0  0.1 0.7 0  0.15 0.7 0  0.2 0.7 0  0.25 0.7 0  0.3 0.7 0  0.35 0.7 0  0.4 0.7 0  0.45 0.7 0  0.5 0.7 0  0.55 0.7 0  0.6 0.7 0  0.65 0.7 0  0.7 0.7 0  0.75 0.7 0  0.8 0.7 0  0.85 0.7 0  0.9 0.7 0  0.95 0.7 0  1 0.7 0  0 0.75 0  0.05 0.75 0  0.1 0.75 0  0.15 0.75 0  0.2 0.75 0  0.25 0.75 0  0.3 0.75 0  0.35 0.75 0  0.4 0.75 0  0.45 0.75 0  0.5 0.75 0  0.55 0.75 0  0.6 0.75 0  0.65 0.75 0  0.7 0.75 0  0.75 0.75 0  0.8 0.75 0  0.85 0.75 0  0.9 0.75 0  0.95 0.75 0  1 0.75 0  0 0.8 0  0.05 0.8 0  0.1 0.8 0  0.15 0.8 0  0.2 0.8 0  0.25 0.8 0  0.3 0.8 0  0.35 0.8 0  0.4 0.8 0  0.45 0.8 0  0.5 0.8 0  0.55 0.8 0  0.6 0.8 0  0.65 0.8 0  0.7 0.8 0  0.75 0.8 0  0.8 0.8 0  0.85 0.8 0  0.9 0.8 0  0.95 0.8 0  1 0.8 0  0 0.85 0  0.05 0.85 0  0.1 0.85 0  0.15 0.85 0  0.2 0.85 0  0.25 0.85 0  0.3 0.85 0  0.35 0.85 0  0.4 0.85 0  0.45 0.85 0  0.5 0.85 0  0.55 0.85 0  0.6 0.85 0  0.65 0.85 0  0.7 0.85 0  0.75 0.85 0  0.8 0.85 0  0.85 0.85 0  0.9 0.85 0  0.95 0.85 0  1 0.85 0  0 0.9 0  0.05 0.9 0  0.1 0.9 0  0.15 0.9 0  0.2 0.9 0  0.25 0.9 0  0.3 0.9 0  0.35 0.9 0  0.4 0.9 0  0.45 0.9 0  0.5 0.9 0  0.55 0.9 0  0.6 0.9 0  0.65 0.9 0  0.7 0.9 0  0.75 0.9 0  0.8 0.9 0  0.85 0.9 0  0.9 0.9 0  0.95 0.9 0  1 0.9 0  0 0.95 0  0.05 0.95 0  0.1 0.95 0  0.15 0.95 0  0.2 0.95 0  0.25 0.95 0  0.3 0.95 0  0.35 0.95 0  0.4 0.95 0  0.45 0.95 0  0.5 0.95 0  0.55 0.95 0  0.6 0.95 0  0.65 0.95 0  0.7 0.95 0  0.75 0.95 0  0.8 0.95 0  0.85 0.95 0  0.9 0.95 0  0.95 0.95 0  1 0.95 0  0 1 0  0.05 1 0  0.1 1 0  0.15 1 0  0.2 1 0  0.25 1 0  0.3 1 0  0.35 1 0  0.4 1 0  0.45 1 0  0.5 1 0  0.55 1 0  0.6 1 0  0.65 1 0  0.7 1 0  0.75 1 0  0.8 1 0  0.85 1 0  0.9 1 0  0.95 1 0  1 1 0  </DataArray>
</Points>
<Cells>
[...]
<PointData  Scalars="u"> 
<DataArray  type="Float64"  Name="u"  format="ascii">0.0000000000000000e+00  0.0000000000000000e+00  0.0000000000000000e+00  0.0000000000000000e+00  0.0000000000000000e+00  0.0000000000000000e+00  0.0000000000000000e+00  0.0000000000000000e+00  0.0000000000000000e+00  0.0000000000000000e+00  0.0000000000000000e+00  0.0000000000000000e+00  0.0000000000000000e+00  0.0000000000000000e+00  0.0000000000000000e+00  0.0000000000000000e+00  0.0000000000000000e+00  0.0000000000000000e+00  0.0000000000000000e+00  0.0000000000000000e+00  0.0000000000000000e+00  9.7500000000000003e-02  6.7127981307598422e-02  6.3566401325171967e-02  7.8869505361254560e-02  9.5195800486378324e-02  1.0783969751126057e-01  1.1713738195167678e-01  1.2422009192303823e-01  1.2965672572219358e-01  1.3341167564442469e-01  1.3527011092603233e-01  1.3512512474454408e-01  1.3304924362292708e-01  1.2924859285486295e-01  1.2397018948836326e-01  1.1736917601479177e-01  1.0927796004034561e-01  9.8874557756985768e-02  8.4129525976593983e-02  6.5981266658097587e-02  5.1551695968789155e-02  1.9000000000000000e-01  1.6076969740518923e-01  1.5285587855669372e-01  1.7194949947126986e-01  1.9290271719242219e-01  2.1098073805888151e-01  2.2556494687570816e-01  2.3719613971921266e-01  2.4616022798315881e-01  2.5230483594505310e-01  2.5538096496144264e-01  2.5528412949618723e-01  2.5211410739987061e-01  2.4612662197179747e-01  2.3763298551225553e-01  2.2685687648620892e-01  2.1373128049666368e-01  1.9765587022165096e-01  1.7711181282500399e-01  1.5242912664724512e-01  1.2661646889104236e-01  2.7749999999999997e-01  2.5206382704234914e-01  2.4641388022629149e-01  2.6626660097868643e-01  2.8837598063241376e-01  3.0858446987252464e-01  3.2568559276435610e-01  3.3978192273368402e-01  3.5079810247078574e-01  3.5841589341003716e-01  3.6234177558943759e-01  3.6246379247950483e-01  3.5887875198806007e-01  3.5184437500283061e-01  3.4169539953022843e-01  3.2873137227051508e-01  3.1306128709560588e-01  2.9437441992959024e-01  2.7132822203625773e-01  2.4328838430586275e-01  2.1195725998831952e-01  3.6000000000000004e-01  3.3870995654750197e-01  3.3611958916487195e-01  3.5628654340633487e-01  3.7867712345762433e-01  3.9957503102202663e-01  4.1771038732551241e-01  4.3299712193992795e-01  4.4511421889275726e-01  4.5362435900502085e-01  4.5818581844238221e-01  4.5866294137427133e-01  4.5513328328844799e-01  4.4784135832344435e-01  4.3713048104929675e-01  4.2335260698037080e-01  4.0672631202415732e-01  3.8706709773137815e-01  3.6305616734573581e-01  3.3361178659370594e-01  2.9985271055508922e-01  4.3750000000000000e-01  4.1986741629976682e-01  4.1984415141553705e-01  4.4011309970786711e-01  4.6239762760332165e-01  4.8335326113739752e-01  5.0181382779009320e-01  5.1759380300102553e-01  5.3025832283441154e-01  5.3931718278547292e-01  5.4439506441891916e-01  5.4533013328282398e-01  5.4217368720147274e-01  5.3514782194435262e-01  5.2458699773132123e-01  5.1085669901432940e-01  4.9421041150319672e-01  4.7450105472907067e-01  4.5046228246290670e-01  4.2089781129352327e-01  3.8674956730812204e-01  5.1000000000000001e-01  4.9547058675484623e-01  4.9736516779688394e-01  5.1737349183247661e-01  5.3922281381738857e-01  5.5989956941585173e-01  5.7831371388049568e-01  5.9421143692907008e-01  6.0712117332990390e-01  6.1653728675109243e-01  6.2206832031547687e-01  6.2353107486248260e-01  6.2094840416016905e-01  6.1451259782796075e-01  6.0453278522060094e-01  5.9135738864068643e-01  5.7523344772269736e-01  5.5602934840894935e-01  5.3259065322671639e-01  5.0379723060411030e-01  4.7055048432043711e-01  5.7750000000000001e-01  5.6562273399859608e-01  5.6884891743755128e-01  5.8820686961623614e-01  6.0933015865032303e-01  6.2949049206260421e-01  6.4762920926240186e-01  6.6343626311166826e-01  6.7642615927890959e-01  6.8609274884939209e-01  6.9204041871024013e-01  6.9406877554971302e-01  6.9217174973528206e-01  6.8650692929371104e-01  6.7734752396256759e-01  6.6500918661491326e-01  6.4971890934230414e-01  6.3136692037072228e-01  6.0895580640110469e-01  5.8153336833890634e-01  5.5000037865813600e-01  6.4000000000000001e-01  6.3040526956437792e-01  6.3450486435748144e-01  6.5289999856386738e-01  6.7306118106835422e-01  6.9251590012927666e-01  7.1022019489342869e-01  7.2580765156498628e-01  7.3877856649975937e-01  7.4862976640292556e-01  7.5496489628163199e-01  7.5756767456373586e-01  7.5640320848773568e-01  7.5159230266150157e-01  7.4336816792549931e-01  7.3200962793212387e-01  7.1772462421048688e-01  7.0043789838679382e-01  6.7933253740356847e-01  6.5366001996376610e-01  6.2432510760396709e-01  6.9750000000000001e-01  6.8988397877007013e-01  6.9452090002280853e-01  7.1174018220527269e-01  7.3076760468594781e-01  7.4937398767963814e-01  7.6652865315930852e-01  7.8180699373800699e-01  7.9469105396372652e-01  8.0467786739711511e-01  8.1136833269361297e-01  8.1452984308698795e-01  8.1409896359910816e-01  8.1015995469916713e-01  8.0290670500499595e-01  7.9258373609413779e-01  7.7938633217916731e-01  7.6328408323411645e-01  7.4364679765604036e-01  7.1993535153445543e-01  6.9305089312427381e-01  7.5000000000000000e-01  7.4410736640096153e-01  7.4904419152056168e-01  7.6496779310590057e-01  7.8275843547376456e-01  8.0042251688684640e-01  8.1694722265328157e-01  8.3185206864595540e-01  8.4459795101691415e-01  8.5467736932856764e-01  8.6168499319715541e-01  8.6537076446384475e-01  8.6564323836871870e-01  8.6255200391447706e-01  8.5625496785074362e-01  8.4696760903902490e-01  8.3487957366460630e-01  8.2001111563264417e-01  8.0191342960813838e-01  7.8024689269552305e-01  7.5589913081582438e-01  7.9749999999999999e-01  7.9311004394511686e-01  7.9818472967815424e-01  8.1277164172952554e-01  8.2928638605982963e-01  8.4596149988377789e-01  8.6180848744329208e-01  8.7629661704841733e-01  8.8886470960996034e-01  8.9899689734218646e-01  9.0627856272350116e-01  9.1044121415185675e-01  9.1136645572614439e-01  9.0907205139751668e-01  9.0368436368675908e-01  8.9539558233904692e-01  8.8439541115954112e-01  8.7075636078640739e-01  8.5419863331913637e-01  8.3456453918807794e-01  8.1271966236384174e-01  8.3999999999999997e-01  8.3691650087911917e-01  8.4202292899132647e-01  8.5529507966074891e-01  8.7055001475651494e-01  8.8623308454430838e-01  9.0138576305692308e-01  9.1543422719503631e-01  9.2779622293467401e-01  9.3794538586556431e-01  9.4545584959506734e-01  9.5004043169526065e-01  9.5155545433300814e-01  9.4999018913730926e-01  9.4544408090507359e-01  9.3809122843747683e-01  9.2812526889228353e-01  9.1566933796814154e-01  9.0059632707822357e-01  8.8290957265245007e-01  8.6344676361412109e-01  8.7750000000000006e-01  8.7554393989640855e-01  8.8061684863641065e-01  8.9264494361576441e-01  9.0670189211316010e-01  9.2142822747250208e-01  9.3589901658948071e-01  9.4950480200712883e-01  9.6164455921265812e-01  9.7178083109597535e-01  9.7947578160829818e-01  9.8442416272012823e-01  9.8645922313171941e-01  9.8554527707070949e-01  9.8175923028218415e-01  9.7526138274111351e-01  9.6625150217255684e-01  9.5489951354640645e-01  9.4121273988189380e-01  9.2533364006590935e-01  9.0806904092899909e-01  9.0999999999999981e-01  9.0900440456437148e-01  9.1400811738504850e-01  9.2489998651350980e-01  9.3785759921640621e-01  9.5169516145056021e-01  9.6552260613651397e-01  9.7870183975723068e-01  9.9061601667439625e-01  1.0007171190098971e+00  1.0085556830859244e+00  1.0138097965707278e+00  1.0162922665817775e+00  1.0159460269424587e+00  1.0128294170604206e+00  1.0070923263369427e+00  9.9894152724666230e-01  9.8858852296757493e-01  9.7615609804172909e-01  9.6190415860815603e-01  9.4660838179186579e-01  9.3750000000000011e-01  9.3730630412503080e-01  9.4222642750704710e-01  9.5211779194193624e-01  9.6410376630412831e-01  9.7714753073594640e-01  9.9039292424062475e-01  1.0031793908710223e+00  1.0148773802129596e+00  1.0249295508243630e+00  1.0328759214875212e+00  1.0383799025838607e+00  1.0412367858427831e+00  1.0413716544008149e+00  1.0388278372068989e+00  1.0337474430755333e+00  1.0263441759141740e+00  1.0168651295143842e+00  1.0055295773034330e+00  9.9269401450729344e-01  9.7910499526013894e-01  9.5999999999999996e-01  9.6045547071889437e-01  9.6529280908527437e-01  9.7434009336374283e-01  9.8550460611500479e-01  9.9787131533752582e-01  1.0106150881381126e+00  1.0230581608397262e+00  1.0345612705054574e+00  1.0445593555070278e+00  1.0525835167382067e+00  1.0582848651833319e+00  1.0614442791403464e+00  1.0619724309589476e+00  1.0599008314430698e+00  1.0553658617334214e+00  1.0485874449411827e+00  1.0398419030399477e+00  1.0294264141379064e+00  1.0177742198450581e+00  1.0056066795540382e+00  9.7750000000000004e-01  9.7845588285438756e-01  9.8322193848415629e-01  9.9159670049360771e-01  1.0021069446253716e+00  1.0139303432545588e+00  1.0262683992678601e+00  1.0384305471905830e+00  1.0497705439472931e+00  1.0597173468423040e+00  1.0677950112443102e+00  1.0736449561152013e+00  1.0770368339516889e+00  1.0778702433938587e+00  1.0761677807095338e+00  1.0720617363242921e+00  1.0657771286674529e+00  1.0576130567294606e+00  1.0479265268957987e+00  1.0372086540023677e+00  1.0261610769748089e+00  9.8999999999999988e-01  9.9131010172696488e-01  9.9602367696874639e-01  1.0039083810938276e+00  1.0139439556553969e+00  1.0253704762007123e+00  1.0374105642369718e+00  1.0493645951561701e+00  1.0605817729373812e+00  1.0704868205141382e+00  1.0785987427626400e+00  1.0845519909687367e+00  1.0881082065881957e+00  1.0891591554463180e+00  1.0877212089897121e+00  1.0839239141460373e+00  1.0779960293788373e+00  1.0702530011136362e+00  1.0610939868175411e+00  1.0510503367015194e+00  1.0408102610996834e+00  9.9749999999999983e-01  9.9901914309701445e-01  1.0037046039428299e+00  1.0112888304603507e+00  1.0210378499799961e+00  1.0322225622883459e+00  1.0440807766175806e+00  1.0559069138004964e+00  1.0670478527054841e+00  1.0769257407079202e+00  1.0850565787343411e+00  1.0910706178977037e+00  1.0947247025534605e+00  1.0959059294095377e+00  1.0946269903153563e+00  1.0910158526797336e+00  1.0853035428402860e+00  1.0778153828448804e+00  1.0689755810979140e+00  1.0593390467158001e+00  1.0495866647632315e+00  1.0000000000000000e+00  1.0015877098024495e+00  1.0062654909804620e+00  1.0137469365223246e+00  1.0234011210249672e+00  1.0345046337068089e+00  1.0463017104153325e+00  1.0580847245015597e+00  1.0691998094609914e+00  1.0790682933394475e+00  1.0872051583367526e+00  1.0932392584562203e+00  1.0969258378299043e+00  1.0981504424434514e+00  1.0969245459103090e+00  1.0933755978620661e+00  1.0877353645102896e+00  1.0803324922798572e+00  1.0715998361165135e+00  1.0620997272593080e+00  1.0525072913600664e+00  </DataArray> 
</PointData> 
</Piece>
</UnstructuredGrid>
</VTKFile>