<?xml version="1.0"?>
<VTKFile type="UnstructuredGrid"  version="0.1"  >
<UnstructuredGrid>
<Piece  NumberOfPoints="441" NumberOfCells="800">
<Points>
<DataArray  type="Float64"  NumberOfComponents="3"  format="ascii">0 0 0  0.05 0 0  0.1 0 0  0.15 0 0  0.2 0 0  0.25 0 0  0.3 0 0  0.35 0 0  0.4 0 0  0.45 0 0  0.5 0 0  0.55 0 0  0.6 0 0  0.65 0 0  0.7 0 0  0.75 0 0  0.8 0 0  0.85 0 0  0.9 0 0  0.95 0 0  1 0 0  0 0.05 0  0.05 0.05 0  0.1 0.05 0  0.15 0.05 0  0.2 0.05 0  0.25 0.05 0  0.3 0.05 0  0.35 0.05 0  0.4 0.05 0  0.45 0.05 0  0.5 0.05 0  0.55 0.05 0  0.6 0.05 0  0.65 0.05 0  0.7 0.05 0  0.75 0.05 0  0.8 0.05 0  0.85 0.05 0  0.9 0.05 0  0.95 0.05 0  1 0.05 0  0 0.1 0  0.05 0.1 0  0.1 0.1 0  0.15 0.1 0  0.2 0.1 0  0.25 0.1 0  0.3 0.1 0  0.35 0.1 0  0.4 0.1 0  0.45 0.1 0  0.5 0.1 0  0.55 0.1 0  0.6 0.1 0  0.65 0.1 0  0.7 0.1 0  0.75 0.1 0  0.8 0.1 0  0.85 0.1 0  0.9 0.1 0  0.95 0.1 0  1 0.1 0  0 0.15 0  0.05 0.15 0  0.1 0.15 0  0.15 0.15 0  0.2 0.15 0  0.25 0.15 0  0.3 0.15 0  0.35 0.15 0  0.4 0.15 0  0.45 0.15 0  0.5 0.15 0  0.55 0.15 0  0.6 0.15 0  0.65 0.15 0  0.7 0.15 0  0.75 0.15 0  0.8 0.15 0  0.85 0.15 0  0.9 0.15 0  0.95 0.15 0  1 0.15 0  0 0.2 0  0.05 0.2 0  0.1 0.2 0  0.15 0.2 0  0.2 0.2 0  0.25 0.2 0  0.3 0.2 0  0.35 0.2 0  0.4 0.2 0  0.45 0.2 0  0.5 0.2 0  0.55 0.2 0  0.6 0.2 0  0.65 0.2 0  0.7 0.2 0  0.75 0.2 0  0.8 0.2 0  0.85 0.2 0  0.9 0.2 0  0.95 0.2 0  1 0.2 0  0 0.25 0  0.05 0.25 0  0.1 0.25 0  0.15 0.25 0  0.2 0.25 0  0.25 0.25 0  0.3 0.25 0  0.35 0.25 0  0.4 0.25 0  0.45 0.25 0  0.5 0.25 0  0.55 0.25 0  0.6 0.25 0  0.65 0.25 0  0.7 0.25 0  0.75 0.25 0  0.8 0.25 0  0.85 0.25 0  0.9 0.25 0  0.95 0.25 0  1 0.25 0  0 0.3 0  0.05 0.3 0  0.1 0.3 0  0.15 0.3 0  0.2 0.3 0  0.25 0.3 0  0.3 0.3 0  0.35 0.3 0  0.4 0.3 0  0.45 0.3 0  0.5 0.3 0  0.55 0.3 0  0.6 0.3 0  0.65 0.3 0  0.7 0.3 0  0.75 0.3 0  0.8 0.3 0  0.85 0.3 0  0.9 0.3 0  0.95 0.3 0  1 0.3 0  0 0.35 0  0.05 0.35 0  0.1 0.35 0  0.15 0.35 0  0.2 0.35 0  0.25 0.35 0  0.3 0.35 0  0.35 0.35 0  0.4 0.35 0  0.45 0.35 0  0.5 0.35 0  0.55 0.35 0  0.6 0.35 0  0.65 0.35 0  0.7 0.35 0  0.75 0.35 0  0.8 0.35 0  0.85 0.35 0  0.9 0.35 0  0.95 0.35 0  1 0.35 0  0 0.4 0  0.05 0.4 0  0.1 0.4 0  0.15 0.4 0  0.2 0.4 0  0.25 0.4 0  0.3 0.4 0  0.35 0.4 0  0.4 0.4 0  0.45 0.4 0  0.5 0.4 0  0.55 0.4 0  0.6 0.4 0  0.65 0.4 0  0.7 0.4 0  0.75 0.4 0  0.8 0.4 0  0.85 0.4 0  0.9 0.4 0  0.95 0.4 0  1 0.4 0  0 0.45 0  0.05 0.45 0  0.1 0.45 0  0.15 0.45 0  0.2 0.45 0  0.25 0.45 0  0.3 0.45 0  0.35 0.45 0  0.4 0.45 0  0.45 0.45 0  0.5 0.45 0  0.55 0.45 0  0.6 0.45 0  0.65 0.45 0  0.7 0.45 0  0.75 0.45 0  0.8 0.45 0  0.85 0.45 0  0.9 0.45 0  0.95 0.45 0  1 0.45 0  0 0.5 0  0.05 0.5 0  0.1 0.5 0  0.15 0.5 0  0.2 0.5 0  0.25 0.5 0  0.3 0.5 0  0.35 0.5 0  0.4 0.5 0  0.45 0.5 0  0.5 0.5 0  0.55 0.5 0  0.6 0.5 0  0.65 0.5 0  0.7 0.5 0  0.75 0.5 0  0.8 0.5 0  0.85 0.5 0  0.9 0.5 0  0.95 0.5 0  1 0.5 0  0 0.55 0  0.05 0.55 0  0.1 0.55 0  0.15 0.55 0  0.2 0.55 0  0.25 0.55 0  0.3 0.55 0  0.35 0.55 0  0.4 0.55 0  0.45 0.55 0  0.5 0.55 0  0.55 0.55 0  0.6 0.55 0  0.65 0.55 0  0.7 0.55 0  0.75 0.55 0  0.8 0.55 0  0.85 0.55 0  0.9 0.55 0  0.95 0.55 0  1 0.55 0  0 0.6 0  0.05 0.6 0  0.1 0.6 0  0.15 0.6 0  0.2 0.6 0  0.25 0.6 0  0.3 0.6 0  0.35 0.6 0  0.4 0.6 0  0.45 0.6 0  0.5 0.6 0  0.55 0.6 0  0.6 0.6 0  0.65 0.6 0  0.7 0.6 0  0.75 0.6 0  0.8 0.6 0  0.85 0.6 0  0.9 0.6 0  0.95 0.6 0  1 0.6 0  0 0.65 0  0.05 0.65 0  0.1 0.65 0  0.15 0.65 0  0.2 0.65 0  0.25 0.65 0  0.3 0.65 0  0.35 0.65 0  0.4 0.65 0  0.45 0.65 0  0.5 0.65 0  0.55 0.65 0  0.6 0.65 0  0.65 0.65 0  0.7 0.65 0  0.75 0.65 0  0.8 0.65 0  0.85 0.65 0  0.9 0.65 0  0.95 0.65 0  1 0.65 0  0 0.7 0  0.05 0.7 0  0.1 0.7 0  0.15 0.7 0  0.2 0.7 0  0.25 0.7 0  0.3 0.7 0  0.35 0.7 0  0.4 0.7 0  0.45 0.7 0  0.5 0.7 0  0.55 0.7 0  0.6 0.7 0  0.65 0.7 0  0.7 0.7 0  0.75 0.7 0  0.8 0.7 0  0.85 0.7 0  0.9 0.7 0  0.95 0.7 0  1 0.7 0  0 0.75 0  0.05 0.75 0  0.1 0.75 0  0.15 0.75 0  0.2 0.75 0  0.25 0.75 0  0.3 0.75 0  0.35 0.75 0  0.4 0.75 0  0.45 0.75 0  0.5 0.75 0  0.55 0.75 0  0.6 0.75 0  0.65 0.75 0  0.7 0.75 0  0.75 0.75 0  0.8 0.75 0  0.85 0.75 0  0.9 0.75 0  0.95 0.75 0  1 0.75 0  0 0.8 0  0.05 0.8 0  0.1 0.8 0  0.15 0.8 0  0.2 0.8 0  0.25 0.8 0  0.3 0.8 0  0.35 0.8 0  0.4 0.8 0  0.45 0.8 0  0.5 0.8 0  0.55 0.8 0  0.6 0.8 0  0.65 0.8 0  0.7 0.8 0  0.75 0.8 0  0.8 0.8 0  0.85 0.8 0  0.9 0.8 0  0.95 0.8 0  1 0.8 0  0 0.85 0  0.05 0.85 0  0.1 0.85 0  0.15 0.85 0  0.2 0.85 0  0.25 0.85 0  0.3 0.85 0  0.35 0.85 0  0.4 0.85 0  0.45 0.85 0  0.5 0.85 0  0.55 0.85 0  0.6 0.85 0  0.65 0.85 0  0.7 0.85 0  0.75 0.85 0  0.8 0.85 0  0.85 0.85 0  0.9 0.85 0  0.95 0.85 0  1 0.85 0  0 0.9 0  0.05 0.9 0  0.1 0.9 0  0.15 0.9 0  0.2 0.9 0  0.25 0.9 0  0.3 0.9 0  0.35 0.9 0  0.4 0.9 0  0.45 0.9 0  0.5 0.9 0  0.55 0.9 0  0.6 0.9 0  0.65 0.9 0  0.7 0.9 0  0.75 0.9 0  0.8 0.9 0  0.85 0.9 0  0.9 0.9 0  0.95 0.9 0  1 0.9 0  0 0.95 0  0.05 0.95 0  0.1 0.95 0  0.15 0.95 0  0.2 0.95 0  0.25 0.95 0  0.3 0.95 0  0.35 0.95 0  0.4 0.95 0  0.45 0.95 0  0.5 0.95 0  0.55 0.95 0  0.6 0.95 0  0.65 0.95 0  0.7 0.95 0  0.75 0.95 0  0.8 0.95 0  0.85 0.95 0  0.9 0.95 0  0.95 0.95 0  1 0.95 0  0 1 0  0.05 1 0  0.1 1 0  0.15 1 0  0.2 1 0  0.25 1 0  0.3 1 0  0.35 1 0  0.4 1 0  0.45 1 0  0.5 1 0  0.55 1 0  0.6 1 0  0.65 1 0  0.7 1 0  0.75 1 0  0.8 1 0  0.85 1 0  0.9 1 0  0.95 1 0  1 1 0  </DataArray>
</Points>
<Cells>
[...]
<PointData  Scalars="u"> 
<DataArray  type="Float64"  Name="u"  format="ascii">-1.8551633781227694e+00  1.9893299835590428e+00  3.8564180378175847e+00  4.7235603537009121e+00  4.7448841541037767e+00  4.4203851387478794e+00  4.0169864137148021e+00  3.5761714760341259e+00  3.0767724051835503e+00  2.5157891696870189e+00  1.9158954101053847e+00  1.3104360080489075e+00  7.3058214477650407e-01  1.9831831458056573e-01  -2.7548863398364432e-01  -6.9280836753855235e-01  -1.0727027081698950e+00  -1.4433731886123005e+00  -1.7760917381850911e+00  -1.6854478725940825e+00  1.7026909556741121e-01  7.1731596708442413e-01  2.0125190585877082e+00  3.9768754627894731e+00  4.5407137625990774e+00  4.4335321193662711e+00  4.1222923988678595e+00  3.7516906014477360e+00  3.3384231465136676e+00  2.8748163561158315e+00  2.3680082116138155e+00  1.8380744675948768e+00  1.3081171908131790e+00  7.9839004902480681e-01  3.2372477422009355e-01  -1.0714980549043286e-01  -4.9281287928804207e-01  -8.4155291869250337e-01  -1.1665472835866524e+00  -1.4888710194775414e+00  -1.5623710710273591e+00  -1.0610282798808994e+00  1.2838147508283075e+00  2.3266309613250038e+00  4.1488724679037627e+00  4.3724932917535790e+00  4.1794391522181726e+00  3.8651191063840429e+00  3.5105514733007896e+00  3.1234103312428871e+00  2.6979702291817609e+00  2.2415720580086749e+00  1.7700813394644730e+00  1.3003599119031086e+00  8.4685243663967791e-01  4.2038004470632628e-01  2.7978731852648115e-02  -3.2807278384654393e-01  -6.5309890305103713e-01  -9.6419121384051187e-01  -1.3077675148202277e+00  -1.5797642645238645e+00  -1.4990499648092990e+00  1.5433161596009650e+00  2.5983925333048767e+00  4.0827559003930185e+00  4.1580493365330664e+00  3.9456967713416202e+00  3.6275016783053839e+00  3.2887179880821349e+00  2.9291590078403527e+00  2.5406649169105462e+00  2.1290135324566171e+00  1.7067942384051047e+00  1.2869220552200511e+00  8.8019600956000565e-01  4.9468543350897487e-01  1.3576001500750226e-01  -1.9499744984776504e-01  -5.0361887475826028e-01  -8.1066608865803236e-01  -1.1751325680923750e+00  -1.5326614857623442e+00  -1.6313912325708995e+00  1.6774400143620170e+00  2.6598156026356103e+00  3.9212275039959965e+00  3.9464811732185408e+00  3.7182098767290177e+00  3.4033241124134621e+00  3.0853995805595775e+00  2.7530924943813964e+00  2.3987436545578693e+00  2.0267399774020651e+00  1.6468510652165949e+00  1.2690948425176596e+00  9.0178294469998199e-01  5.5108425524930160e-01  2.2099073878355435e-01  -8.7907717583855002e-02  -3.8242616579627581e-01  -6.8445445410703509e-01  -1.0539220389486521e+00  -1.4457620086644167e+00  -1.6363652228665737e+00  1.7321252908980411e+00  2.6334389960767721e+00  3.7262953666685403e+00  3.7175175788255719e+00  3.4878577646868227e+00  3.1918540984866932e+00  2.8974825506897868e+00  2.5917109258791151e+00  2.2691477134730715e+00  1.9324541888136078e+00  1.5892993418727404e+00  1.2476517400017608e+00  9.1407882992872314e-01  5.9337927218043185e-01  2.8847240086097520e-01  -8.2593208889898510e-04  -2.8159885412686075e-01  -5.7504838275165093e-01  -9.3718622672868945e-01  -1.3338723704022126e+00  -1.5654076078001231e+00  1.7571196991004505e+00  2.5641517435933077e+00  3.5085633755770478e+00  3.4816234054831945e+00  3.2656487786583694e+00  2.9934469841468072e+00  2.7226648214430633e+00  2.4430938725659677e+00  2.1499626087199668e+00  1.8447742178047908e+00  1.5338308947015731e+00  1.2235601560025395e+00  9.1926017881907451e-01  6.2475127570220790e-01  3.4220892435084277e-01  7.1018685763236306e-02  -1.9560898221900594e-01  -4.7703969817928099e-01  -8.2337474522695031e-01  -1.2074698962339099e+00  -1.4536401166736650e+00  1.7691704822636165e+00  2.4759231231152268e+00  3.2865496558019403e+00  3.2512527685387194e+00  3.0538203803726018e+00  2.8065728871653692e+00  2.5601315399418443e+00  2.3059912887683121e+00  2.0398495196950370e+00  1.7629320839761327e+00  1.4804727470216554e+00  1.1977372387187832e+00  9.1912199708262854e-01  6.4776906319174143e-01  3.8538547372269416e-01  1.3122234577304209e-01  -1.2084001136576006e-01  -3.8780583277017161e-01  -7.1321432992151834e-01  -1.0749487370757320e+00  -1.3207447758831592e+00  1.7772305169620164e+00  2.3833799332213323e+00  3.0710706917346968e+00  3.0317897481534386e+00  2.8542994621537314e+00  2.6323700518807311e+00  2.4098491538358817e+00  2.1795441527586252e+00  1.9380927875115519e+00  1.6866080776900190e+00  1.4294480617508827e+00  1.1710519386985381e+00  9.1516646794000001e-01  6.6447554378176454e-01  4.2042920119817040e-01  1.8235641095881891e-01  -5.4986944141305109e-02  -3.0607969714405459e-01  -6.0790182565456496e-01  -9.4219610128967235e-01  -1.1790610637163601e+00  1.7855255592545778e+00  2.2941087927383630e+00  2.8683136557011921e+00  2.8270445439460681e+00  2.6691670804126559e+00  2.4715322303842826e+00  2.2715533618189134e+00  2.0633301227216951e+00  1.8443817223182832e+00  1.6157235184926144e+00  1.3810826827775200e+00  1.1442902499804637e+00  9.0861708702843214e-01  6.7645450654451933e-01  4.4914529841489620e-01  2.2622950112057086e-01  3.4207548918951847e-03  -2.3127332404825721e-01  -5.0859548315753889e-01  -8.1338104366188524e-01  -1.0366675010095883e+00  1.7956179934940031e+00  2.2119939038329912e+00  2.6817907280613142e+00  2.6392406201399830e+00  2.4995913369616534e+00  2.3244711242881517e+00  2.1452819406539709e+00  1.9572419869387332e+00  1.7586024262800288e+00  1.5503531452772219e+00  1.3357453078756205e+00  1.1181368794452395e+00  9.0045728596094199e-01  6.8492128900936733e-01  4.7286283232768406e-01  2.6410640013874148e-01  5.5325851038905652e-02  -1.6313158638711850e-01  -4.1624922073732523e-01  -6.9141081344610655e-01  -8.9892013252315950e-01  1.8077326266687952e+00  2.1387693437349777e+00  2.5132424339990278e+00  2.4695246502512136e+00  2.3462526084679980e+00  2.1915030493679839e+00  2.0311098164968731e+00  1.8612402178919703e+00  1.6807577240675071e+00  1.4906542062249557e+00  1.2937947795937215e+00  1.0931710097239116e+00  8.9146808554556711e-01  6.9080099879156276e-01  4.9255647529139102e-01  2.9687439603503524e-01  1.0134237852382411e-01  -1.0155447392822171e-01  -3.3159101592290113e-01  -5.7828856174885124e-01  -7.6939938455992585e-01  1.8214082989793632e+00  2.0749532866491722e+00  2.3633625637857696e+00  2.3183849187191434e+00  2.2094695039046592e+00  2.0727841448901319e+00  1.9290842985445642e+00  1.7753419327782480e+00  1.6109165477386018e+00  1.4368045027161027e+00  1.2555546133095079e+00  1.0698718126269662e+00  8.8226327431840312e-01  6.9479540882005242e-01  5.0894240326502871e-01  3.2516162023844669e-01  1.4187958266796388e-01  -4.6507747324084754e-02  -2.5514701915438365e-01  -4.7537117299691473e-01  -6.5048767970783650e-01  1.8358778846462445e+00  2.0204127738529132e+00  2.2322425989547563e+00  2.1859036096073172e+00  2.0893162291757532e+00  1.9683575310002723e+00  1.8392267893492009e+00  1.6995761582509472e+00  1.5491585438182855e+00  1.3889720135704280e+00  1.2213024627154869e+00  1.0486264653432320e+00  8.7332072085099288e-01  6.9743590489135898e-01  5.2254891310151097e-01  3.4941817692633664e-01  1.7721864083374145e-01  2.0211067050384789e-03  -1.8727891213903841e-01  -3.8355619421768755e-01  -5.4375114231440780e-01  1.8502807200756446e+00  1.9746955028118105e+00  2.1196509306134108e+00  2.0719338147556683e+00  1.9857186816699337e+00  1.8781868494029352e+00  1.7615255391746731e+00  1.6339622849828588e+00  1.4955561688804810e+00  1.3473020504184134e+00  1.1912657548509777e+00  1.0297411935105563e+00  8.6500916784453885e-01  6.9912394036101388e-01  5.3376735448779111e-01  3.6997077356703151e-01  2.0755919840041975e-01  4.4042345152370280e-02  -1.2822166756421957e-01  -3.0341798605408055e-01  -4.5019776754459762e-01  1.8637812195532686e+00  1.9372260362231295e+00  2.0252070967061995e+00  1.9762154160181276e+00  1.8985216050280127e+00  1.8021862491200942e+00  1.6959429643763062e+00  1.5785057160812668e+00  1.4501657672555688e+00  1.3119107720570635e+00  1.1656238448081269e+00  1.0134535579539519e+00  8.5761012680631055e-01  7.0016160188383947e-01  5.4288826403847057e-01  3.8705904844945177e-01  2.3304801179083129e-01  7.9571891962474231e-02  -7.8116668935890032e-02  -2.3530742338707877e-01  -3.7045640193166457e-01  1.8756280844128446e+00  1.9074183640358779e+00  1.9484885350490673e+00  1.8984497646912430e+00  1.8275363620125662e+00  1.7402457103152678e+00  1.6424251282624163e+00  1.5331982567827356e+00  1.4130255311118138e+00  1.2828856336627790e+00  1.1445132855057076e+00  9.9994353273658876e-01  8.5133515360409528e-01  7.0077397821845466e-01  5.5012634162276097e-01  4.0085959586640640e-01  2.5379482605129267e-01  1.0862856930671634e-01  -3.7042668725837558e-02  -1.7942534499719257e-01  -3.0490233989684129e-01  1.8851780199800983e+00  1.8847496064826375e+00  1.8890945100960994e+00  1.8383491067812656e+00  1.7725759014276090e+00  1.6922522661960033e+00  1.6009130701389320e+00  1.4980237401974508e+00  1.3841592662769211e+00  1.2602901148883205e+00  1.1280353435290478e+00  9.8934483763339565e-01  8.4634095541639998e-01  7.0112708235442800e-01  5.5563958376904077e-01  4.1150272231283019e-01  2.6988225156258067e-01  1.3123895934155838e-01  -5.0244651671390878e-03  -1.3587085118671860e-01  -2.5374709014627583e-01  1.8920203248025607e+00  1.8687625609665286e+00  1.8466770663111833e+00  1.7956668005805134e+00  1.7334739188999244e+00  1.6581008061795390e+00  1.5713480699993461e+00  1.4729590415164107e+00  1.3635763165671577e+00  1.2441641014801943e+00  1.1162581778280269e+00  9.8174931849658964e-01  8.4273583795919638e-01  7.0133565839474976e-01  5.5953685367376294e-01  4.1907741938750470e-01  2.8136828938830832e-01  1.4742416056626151e-01  1.7904762048412026e-02  -1.0472074500365325e-01  -2.1710339207879892e-01  1.8953778089375357e+00  1.8590925309901325e+00  1.8210108665258971e+00  1.7702393648877301e+00  1.7101078153097731e+00  1.6377251463466418e+00  1.5536919704490795e+00  1.4579964824946745e+00  1.3512915085137926e+00  1.2345445531508139e+00  1.1092381566671119e+00  9.7722962814481973e-01  8.4060367889439624e-01  7.0148810088473967e-01  5.6190308879256101e-01  4.2365652876407384e-01  2.8830747709987037e-01  1.5721267153030552e-01  3.1782095894789295e-02  -8.5851583698737841e-02  -1.9498222962612075e-01  1.8958985108086157e+00  1.8557602662048100e+00  1.8120203512761210e+00  1.7618163184081483e+00  1.7024256278030596e+00  1.6310087130351203e+00  1.5478921939851571e+00  1.4530821357289707e+00  1.3472709330203927e+00  1.2314083980925297e+00  1.1069647306913097e+00  9.7578454621501642e-01  8.3994960215117787e-01  7.0159157450537024e-01  5.6274253396279905e-01  4.2523514704753218e-01  2.9068055670544513e-01  1.6056460673289016e-01  3.6550370973999963e-02  -7.9520629086947861e-02  -1.8780655298264173e-01  </DataArray> 
</PointData> 
</Piece>
</UnstructuredGrid>
</VTKFile>