<?xml version="1.0"?>
<VTKFile type="UnstructuredGrid"  version="0.1"  >
<UnstructuredGrid>
<Piece  NumberOfPoints="441" NumberOfCells="800">
<Points>
<DataArray  type="Float64"  NumberOfComponents="3"  format="ascii">0 0 0  0.05 0 0  0.1 0 0  0.15 0 0  0.2 0 0  0.25 0 0  0.3 0 0  0.35 0 0  0.4 0 0  0.45 0 0  0.5 0 0  0.55 0 0  0.6 0 0  0.65 0 0  0.7 0 0  0.75 0 0  0.8 0 0  0.85 0 0  0.9 0 0  0.95 0 0  1 0 0  0 0.05 0  0.05 0.05 0  0.1 0.05 0  0.15 0.05 0  0.2 0.05 0  0.25 0.05 0  0.3 0.05 0  0.35 0.05 0  0.4 0.05 0  0.45 0.05 0  0.5 0.05 0  0.55 0.05 0  0.6 0.05 0  0.65 0.05 0  0.7 0.05 0  0.75 0.05 0  0.8 0.05 0  0.85 0.05 0  0.9 0.05 0  0.95 0.05 0  1 0.05 0  0 0.1 0  0.05 0.1 0  0.1 0.1 0  0.15 0.1 0  0.2 0.1 0  0.25 0.1 0  0.3 0.1 0  0.35 0.1 0  0.4 0.1 0  0.45 0.1 0  0.5 0.1 0  0.55 0.1 0  0.6 0.1 0  0.65 0.1 0  0.7 0.1 0  0.75 0.1 0  0.8 0.1 0  0.85 0.1 0  0.9 0.1 0  0.95 0.1 0  1 0.1 0  0 0.15 0  0.05 0.15 0  0.1 0.15 0  0.15 0.15 0  0.2 0.15 0  0.25 0.15 0  0.3 0.15 0  0.35 0.15 0  0.4 0.15 0  0.45 0.15 0  0.5 0.15 0  0.55 0.15 0  0.6 0.15 0  0.65 0.15 0  0.7 0.15 0  0.75 0.15 0  0.8 0.15 0  0.85 0.15 0  0.9 0.15 0  0.95 0.15 0  1 0.15 0  0 0.2 0  0.05 0.2 0  0.1 0.2 0  0.15 0.2 0  0.2 0.2 0  0.25 0.2 0  0.3 0.2 0  0.35 0.2 0  0.4 0.2 0  0.45 0.2 0  0.5 0.2 0  0.55 0.2 0  0.6 0.2 0  0.65 0.2 0  0.7 0.2 0  0.75 0.2 0  0.8 0.2 0  0.85 0.2 0  0.9 0.2 0  0.95 0.2 0  1 0.2 0  0 0.25 0  0.05 0.25 0  0.1 0.25 0  0.15 0.25 0  0.2 0.25 0  0.25 0.25 0  0.3 0.25 0  0.35 0.25 0  0.4 0.25 0  0.45 0.25 0  0.5 0.25 0  0.55 0.25 0  0.6 0.25 0  0.65 0.25 0  0.7 0.25 0  0.75 0.25 0  0.8 0.25 0  0.85 0.25 0  0.9 0.25 0  0.95 0.25 0  1 0.25 0  0 0.3 0  0.05 0.3 0  0.1 0.3 0  0.15 0.3 0  0.2 0.3 0  0.25 0.3 0  0.3 0.3 0  0.35 0.3 0  0.4 0.3 0  0.45 0.3 0  0.5 0.3 0  0.55 0.3 0  0.6 0.3 0  0.65 0.3 0  0.7 0.3 0  0.75 0.3 0  0.8 0.3 0  0.85 0.3 0  0.9 0.3 0  0.95 0.3 0  1 0.3 0  0 0.35 0  0.05 0.35 0  0.1 0.35 0  0.15 0.35 0  0.2 0.35 0  0.25 0.35 0  0.3 0.35 0  0.35 0.35 0  0.4 0.35 0  0.45 0.35 0  0.5 0.35 0  0.55 0.35 0  0.6 0.35 0  0.65 0.35 0  0.7 0.35 0  0.75 0.35 0  0.8 0.35 0  0.85 0.35 0  0.9 0.35 0  0.95 0.35 0  1 0.35 0  0 0.4 0  0.05 0.4 0  0.1 0.4 0  0.15 0.4 0  0.2 0.4 0  0.25 0.4 0  0.3 0.4 0  0.35 0.4 0  0.4 0.4 0  0.45 0.4 0  0.5 0.4 0  0.55 0.4 0  0.6 0.4 0  0.65 0.4 0  0.7 0.4 0  0.75 0.4 0  0.8 0.4 0  0.85 0.4 0  0.9 0.4 0  0.95 0.4 0  1 0.4 0  0 0.45 0  0.05 0.45 0  0.1 0.45 0  0.15 0.45 0  0.2 0.45 0  0.25 0.45 0  0.3 0.45 0  0.35 0.45 0  0.4 0.45 0  0.45 0.45 0  0.5 0.45 0  0.55 0.45 0  0.6 0.45 0  0.65 0.45 0  0.7 0.45 0  0.75 0.45 0  0.8 0.45 0  0.85 0.45 0  0.9 0.45 0  0.95 0.45 0  1 0.45 0  0 0.5 0  0.05 0.5 0  0.1 0.5 0  0.15 0.5 0  0.2 0.5 0  0.25 0.5 0  0.3 0.5 0  0.35 0.5 0  0.4 0.5 0  0.45 0.5 0  0.5 0.5 0  0.55 0.5 0  0.6 0.5 0  0.65 0.5 0  0.7 0.5 0  0.75 0.5 0  0.8 0.5 0  0.85 0.5 0  0.9 0.5 0  0.95 0.5 0  1 0.5 0  0 0.55 0  0.05 0.55 0  0.1 0.55 0  0.15 0.55 0  0.2 0.55 0  0.25 0.55 0  0.3 0.55 0  0.35 0.55 0  0.4 0.55 0  0.45 0.55 0  0.5 0.55 0  0.55 0.55 0  0.6 0.55 0  0.65 0.55 0  0.7 0.55 0  0.75 0.55 0  0.8 0.55 0  0.85 0.55 0  0.9 0.55 0  0.95 0.55 0  1 0.55 0  0 0.6 0  0.05 0.6 0  0.1 0.6 0  0.15 0.6 0  0.2 0.6 0  0.25 0.6 0  0.3 0.6 0  0.35 0.6 0  0.4 0.6 0  0.45 0.6 0  0.5 0.6 0  0.55 0.6 0  0.6 0.6 0  0.65 0.6 0  0.7 0.6 0  0.75 0.6 0  0.8 0.6 0  0.85 0.6 0  0.9 0.6 0  0.95 0.6 0  1 0.6 0  0 0.65 0  0.05 0.65 0  0.1 0.65 0  0.15 0.65 0  0.2 0.65 0  0.25 0.65 0  0.3 0.65 0  0.35 0.65 0  0.4 0.65 0  0.45 0.65 0  0.5 0.65 0  0.55 0.65 0  0.6 0.65 0  0.65 0.65 0  0.7 0.65 0  0.75 0.65 0  0.8 0.65 0  0.85 0.65 0  0.9 0.65 0  0.95 0.65 0  1 0.65 0  0 0.7 0  0.05 0.7 0  0.1 0.7 0  0.15 0.7 0  0.2 0.7 0  0.25 0.7 0  0.3 0.7 0  0.35 0.7 0  0.4 0.7 0  0.45 0.7 0  0.5 0.7 0  0.55 0.7 0  0.6 0.7 0  0.65 0.7 0  0.7 0.7 0  0.75 0.7 0  0.8 0.7 0  0.85 0.7 0  0.9 0.7 0  0.95 0.7 0  1 0.7 0  0 0.75 0  0.05 0.75 0  0.1 0.75 0  0.15 0.75 0  0.2 0.75 0  0.25 0.75 0  0.3 0.75 0  0.35 0.75 0  0.4 0.75 0  0.45 0.75 0  0.5 0.75 0  0.55 0.75 0  0.6 0.75 0  0.65 0.75 0  0.7 0.75 0  0.75 0.75 0  0.8 0.75 0  0.85 0.75 0  0.9 0.75 0  0.95 0.75 0  1 0.75 0  0 0.8 0  0.05 0.8 0  0.1 0.8 0  0.15 0.8 0  0.2 0.8 0  0.25 0.8 0  0.3 0.8 0  0.35 0.8 0  0.4 0.8 0  0.45 0.8 0  0.5 0.8 0  0.55 0.8 0  0.6 0.8 0  0.65 0.8 0  0.7 0.8 0  0.75 0.8 0  0.8 0.8 0  0.85 0.8 0  0.9 0.8 0  0.95 0.8 0  1 0.8 0  0 0.85 0  0.05 0.85 0  0.1 0.85 0  0.15 0.85 0  0.2 0.85 0  0.25 0.85 0  0.3 0.85 0  0.35 0.85 0  0.4 0.85 0  0.45 0.85 0  0.5 0.85 0  0.55 0.85 0  0.6 0.85 0  0.65 0.85 0  0.7 0.85 0  0.75 0.85 0  0.8 0.85 0  0.85 0.85 0  0.9 0.85 0  0.95 0.85 0  1 0.85 0  0 0.9 0  0.05 0.9 0  0.1 0.9 0  0.15 0.9 0  0.2 0.9 0  0.25 0.9 0  0.3 0.9 0  0.35 0.9 0  0.4 0.9 0  0.45 0.9 0  0.5 0.9 0  0.55 0.9 0  0.6 0.9 0  0.65 0.9 0  0.7 0.9 0  0.75 0.9 0  0.8 0.9 0  0.85 0.9 0  0.9 0.9 0  0.95 0.9 0  1 0.9 0  0 0.95 0  0.05 0.95 0  0.1 0.95 0  0.15 0.95 0  0.2 0.95 0  0.25 0.95 0  0.3 0.95 0  0.35 0.95 0  0.4 0.95 0  0.45 0.95 0  0.5 0.95 0  0.55 0.95 0  0.6 0.95 0  0.65 0.95 0  0.7 0.95 0  0.75 0.95 0  0.8 0.95 0  0.85 0.95 0  0.9 0.95 0  0.95 0.95 0  1 0.95 0  0 1 0  0.05 1 0  0.1 1 0  0.15 1 0  0.2 1 0  0.25 1 0  0.3 1 0  0.35 1 0  0.4 1 0  0.45 1 0  0.5 1 0  0.55 1 0  0.6 1 0  0.65 1 0  0.7 1 0  0.75 1 0  0.8 1 0  0.85 1 0  0.9 1 0  0.95 1 0  1 1 0  </DataArray>
</Points>
<Cells>
[...]
<PointData  Scalars="u"> 
<DataArray  type="Float64"  Name="u"  format="ascii">0.0000000000000000e+00  0.0000000000000000e+00  0.0000000000000000e+00  0.0000000000000000e+00  0.0000000000000000e+00  0.0000000000000000e+00  0.0000000000000000e+00  0.0000000000000000e+00  0.0000000000000000e+00  0.0000000000000000e+00  0.0000000000000000e+00  0.0000000000000000e+00  0.0000000000000000e+00  0.0000000000000000e+00  0.0000000000000000e+00  0.0000000000000000e+00  0.0000000000000000e+00  0.0000000000000000e+00  0.0000000000000000e+00  0.0000000000000000e+00  0.0000000000000000e+00  9.7500000000000003e-02  3.7542169910390930e-02  2.5208565990356330e-02  2.8227713705765295e-02  3.2126641031938526e-02  3.4790207660383717e-02  3.6179187604871467e-02  3.7168265120958111e-02  3.9018271956492025e-02  4.2612095616398317e-02  4.8200847907254610e-02  5.5401057048489341e-02  6.3185728543629693e-02  7.0130385076649954e-02  7.4899264646382482e-02  7.6953185318587955e-02  7.6207157892628385e-02  7.4323499867598716e-02  6.5881629775742051e-02  7.9375264092522491e-02  1.4498743618544285e-01  1.9000000000000000e-01  1.2437103904872256e-01  8.9248362151618923e-02  8.1643880236259611e-02  8.0971916749932121e-02  8.2385990892835326e-02  8.3621851236622677e-02  8.5162715159347591e-02  8.8418667151958147e-02  9.4568634587446729e-02  1.0382943734765598e-01  1.1531870217727508e-01  1.2729468641273456e-01  1.3776791142518291e-01  1.4515358190906089e-01  1.4901121332332565e-01  1.4951073967629888e-01  1.4944522720006129e-01  1.4853880858088100e-01  1.7810452029130147e-01  2.2881318985718782e-01  2.7749999999999997e-01  2.1513036708204528e-01  1.7230090787332519e-01  1.5353949987716936e-01  1.4549595449175631e-01  1.4267460616080507e-01  1.4174522910141246e-01  1.4253602454131012e-01  1.4611214356544061e-01  1.5349106736173096e-01  1.6462435823004934e-01  1.7823033511892364e-01  1.9223157283547443e-01  2.0453677078434124e-01  2.1369484668212999e-01  2.1952309687613833e-01  2.2273634388168415e-01  2.2704348411090269e-01  2.3396930447408379e-01  2.6567043433941112e-01  3.1631139632741512e-01  3.6000000000000004e-01  3.0314925458628306e-01  2.5944663900925125e-01  2.3453054652514163e-01  2.2025253592404151e-01  2.1251630758276796e-01  2.0835390410111337e-01  2.0727572107042253e-01  2.1004881470736250e-01  2.1740201201556852e-01  2.2898096709951538e-01  2.4323368581881105e-01  2.5796694870839237e-01  2.7117029518597491e-01  2.8160697474357960e-01  2.8934742290054088e-01  2.9542685293780707e-01  3.0354359499461075e-01  3.1453816225012815e-01  3.4570119773060803e-01  3.9258592834741074e-01  4.3749999999999994e-01  3.8663704478932814e-01  3.4499078887324114e-01  3.1786212011697129e-01  2.9960898365345801e-01  2.8785881671178853e-01  2.8043887245859828e-01  2.7700508059346229e-01  2.7823128912435319e-01  2.8463172383142127e-01  2.9563096964855312e-01  3.0953262988544894e-01  3.2414754505118892e-01  3.3759821745348312e-01  3.4883014169207688e-01  3.5803586421579797e-01  3.6626209592531445e-01  3.7666649152030418e-01  3.8944857372821795e-01  4.1905760595454739e-01  4.6201210365179912e-01  5.1000000000000001e-01  4.6507778122799576e-01  4.2672413900836387e-01  3.9960753566175783e-01  3.7946562848083293e-01  3.6505259914833399e-01  3.5499192473002417e-01  3.4929207040572657e-01  3.4868231092164648e-01  3.5359412761938330e-01  3.6335472313024647e-01  3.7623887686804425e-01  3.9013417354835395e-01  4.0330128126422354e-01  4.1480771888304130e-01  4.2485021040353921e-01  4.3432764789458411e-01  4.4583318621254331e-01  4.5926828340619619e-01  4.8702790910475985e-01  5.2642186689174875e-01  5.7750000000000001e-01  5.3828448168963128e-01  5.0368735659277453e-01  4.7778194125628903e-01  4.5720247753220927e-01  4.4135498554359437e-01  4.2948639405421635e-01  4.2193747990035241e-01  4.1955250512773412e-01  4.2277330185897394e-01  4.3093632817498767e-01  4.4238383431512718e-01  4.5513250453746423e-01  4.6758029550282881e-01  4.7887559462775420e-01  4.8916275087240207e-01  4.9916652581353593e-01  5.1101621858168811e-01  5.2450967861855902e-01  5.5032208974076768e-01  5.8632410351396980e-01  6.4000000000000001e-01  6.0616250011423511e-01  5.7542531086758986e-01  5.5134505622597929e-01  5.3123633332071662e-01  5.1489561196170464e-01  5.0199865444334590e-01  4.9312709057529569e-01  4.8922550194954761e-01  4.9078185078838216e-01  4.9721118915809220e-01  5.0699311482105025e-01  5.1831426769062694e-01  5.2971617146775984e-01  5.4041372396093479e-01  5.5048838717025939e-01  5.6051221717843025e-01  5.7223930422560676e-01  5.8544946452333890e-01  6.0928119130607827e-01  6.4202741730545920e-01  6.9750000000000012e-01  6.6866510684199787e-01  6.4170154580348016e-01  6.1972576561095272e-01  6.0062463888086881e-01  5.8444283486036175e-01  5.7114278906753824e-01  5.6145129389153636e-01  5.5636393794736838e-01  5.5641222766120446e-01  5.6112235112840014e-01  5.6915422156264639e-01  5.7889454379222560e-01  5.8903984515633034e-01  5.9887395138370136e-01  6.0842508781781424e-01  6.1814109655628557e-01  6.2946280282700051e-01  6.4218817197455491e-01  6.6404895100795291e-01  6.9367547596253010e-01  7.5000000000000000e-01  7.2576632173568856e-01  7.0238438454061891e-01  6.8259597164758246e-01  6.6479302163693010e-01  6.4919072853753568e-01  6.3594511203921256e-01  6.2585117064072571e-01  6.1990363348904631e-01  6.1865670066896006e-01  6.2175419457623404e-01  6.2805672413048408e-01  6.3616926154937092e-01  6.4495403462956102e-01  6.5377196436223517e-01  6.6261286231986261e-01  6.7182474478062315e-01  6.8257909798689431e-01  6.9470646679916170e-01  7.1464237071940517e-01  7.4129868535027377e-01  7.9749999999999999e-01  7.7745084515442875e-01  7.5739620830677945e-01  7.3975767462286479e-01  7.2338066532834278e-01  7.0860631708675392e-01  6.9572423126037219e-01  6.8554416103948101e-01  6.7901860366796152e-01  6.7669965292621836e-01  6.7834082912685167e-01  6.8300687823621586e-01  6.8952729769626553e-01  6.9693571645064423e-01  7.0467740193332484e-01  7.1271754067641313e-01  7.2132331827276852e-01  7.3143072695536238e-01  7.4290738570153125e-01  7.6099803207191330e-01  7.8485650653800365e-01  8.3999999999999997e-01  8.2370912194492274e-01  8.0668856304332603e-01  7.9108561261638155e-01  7.7615292749175446e-01  7.6232965125228191e-01  7.5000003234455870e-01  7.3995482276131586e-01  7.3307661518758571e-01  7.2989441039854586e-01  7.3025714928594554e-01  7.3342553209821293e-01  7.3844928708840352e-01  7.4453247570676628e-01  7.5120818780841125e-01  7.5842782349762616e-01  7.6639235843715880e-01  7.7583095514624867e-01  7.8664790022537434e-01  8.0300411866640375e-01  8.2426441652190452e-01  8.7749999999999995e-01  8.6453480164071539e-01  8.5022957077086658e-01  8.3649691415450311e-01  8.2295176647298496e-01  8.1011184950962434e-01  7.9843013885861835e-01  7.8865926931319530e-01  7.8159704227177862e-01  7.7773494833675871e-01  7.7700143407108624e-01  7.7883755753181461e-01  7.8250050518092551e-01  7.8735726251396876e-01  7.9302780508968806e-01  7.9945747229869035e-01  8.0679249750787330e-01  8.1558141640468640e-01  8.2576200834961766e-01  8.4052305120853765e-01  8.5941320519619924e-01  9.0999999999999992e-01  8.9992343914117312e-01  8.8799725429572585e-01  8.7593451982726656e-01  8.6366732179173578e-01  8.5177693645788310e-01  8.4076719861060867e-01  8.3134392757762354e-01  8.2421566239155564e-01  8.1982872014018149e-01  8.1817583280978656e-01  8.1885834411449021e-01  8.2132176386005695e-01  8.2508294442861840e-01  8.2984379231215055e-01  8.3554865044620541e-01  8.4229830021028052e-01  8.5048584421640117e-01  8.6007757742312052e-01  8.7340788393327062e-01  8.9018325067062520e-01  9.3750000000000011e-01  9.2987179446088986e-01  9.1997589735872765e-01  9.0935789677668988e-01  8.9822130417389479e-01  8.8719826596784901e-01  8.7683066484763783e-01  8.6777606328150381e-01  8.6065721625197034e-01  8.5587347572319572e-01  8.5346822827658264e-01  8.5318045648202545e-01  8.5462031255644721e-01  8.5743712695911734e-01  8.6140651547293712e-01  8.6647482035795764e-01  8.7270519911184707e-01  8.8036027055260657e-01  8.8942856579942453e-01  9.0151425411246633e-01  9.1645511929225365e-01  9.5999999999999996e-01  9.5437743575500977e-01  9.4615401775101460e-01  9.3673770162096270e-01  9.2655709720917101e-01  9.1628381919011848e-01  9.0648821297414994e-01  8.9778315024306876e-01  8.9071492172041788e-01  8.8563880475668622e-01  8.8263694781985269e-01  8.8156191467404155e-01  8.8216168299324882e-01  8.8419746760454021e-01  8.8750788462000574e-01  8.9204276568779528e-01  8.9783452028281363e-01  9.0504035974470931e-01  9.1366378100298939e-01  9.2470904747373750e-01  9.3811742152569022e-01  9.7750000000000004e-01  9.7343861235806539e-01  9.6652320345745646e-01  9.5805264774424714e-01  9.4863375140520023e-01  9.3896691883052885e-01  9.2964349164169779e-01  9.2123862289016611e-01  9.1423562236094935e-01  9.0895211052186142e-01  9.0549865347244829e-01  9.0381660588228119e-01  9.0376285336038642e-01  9.0518761562211891e-01  9.0798001104134474e-01  9.1209380713400967e-01  9.1753691342949817e-01  9.2438651610214140e-01  9.3265308496846933e-01  9.4287666563006300e-01  9.5507260754460244e-01  9.8999999999999988e-01  9.8705388661050386e-01  9.8107746846558108e-01  9.7328773524458945e-01  9.6442223836972907e-01  9.5520032696755952e-01  9.4622808140464909e-01  9.3805218003310487e-01  9.3110929217614236e-01  9.2568833938260908e-01  9.2191919100571251e-01  9.1980684607499041e-01  9.1928681342920493e-01  9.2027386117584808e-01  9.2269392811244544e-01  9.2650436345125764e-01  9.3169456201950185e-01  9.3828740186675963e-01  9.4629179650172690e-01  9.5592320782882623e-01  9.6724083167503327e-01  9.9749999999999983e-01  9.9522266448105023e-01  9.8981408525470427e-01  9.8243268269192563e-01  9.7390311260744300e-01  9.6495244121051837e-01  9.5619623540169552e-01  9.4816328887845824e-01  9.4126186003739087e-01  9.3576279462888201e-01  9.3180704315851559e-01  9.2943794277704850e-01  9.2863849407981602e-01  9.2936254264323526e-01  9.3155845318297403e-01  9.3518606579871744e-01  9.4022279451752988e-01  9.4666200866707140e-01  9.5450376457325015e-01  9.6377953450821785e-01  9.7456337483708821e-01  1.0000000000000000e+00  9.9795511161145445e-01  9.9272717503863284e-01  9.8548151348894930e-01  9.7706472849809423e-01  9.6820512928375124e-01  9.5952180757078553e-01  9.5153743594947648e-01  9.4465071978076876e-01  9.3912630637960393e-01  9.3510875769652979e-01  9.3265430042204645e-01  9.3176180436972977e-01  9.3239816870128245e-01  9.3451929608528650e-01  9.3808589330755376e-01  9.4307113031622891e-01  9.4945975168670416e-01  9.5724498641710010e-01  9.6640294835949569e-01  9.7700720215353731e-01  </DataArray> 
</PointData> 
</Piece>
</UnstructuredGrid>
</VTKFile>