<?xml version="1.0"?>
<VTKFile type="UnstructuredGrid"  version="0.1"  >
<UnstructuredGrid>
<Piece  NumberOfPoints="441" NumberOfCells="800">
<Points>
<DataArray  type="Float64"  NumberOfComponents="3"  format="ascii">0 0 0  0.05 0 0  0.1 0 0  0.15 0 0  0.2 0 0  0.25 0 0  0.3 0 0  0.35 0 0  0.4 0 0  0.45 0 0  0.5 0 0  0.55 0 0  0.6 0 0  0.65 0 0  0.7 0 0  0.75 0 0  0.8 0 0  0.85 0 0  0.9 0 0  0.95 0 0  1 0 0  0 0.05 0  0.05 0.05 0  0.1 0.05 0  0.15 0.05 0  0.2 0.05 0  0.25 0.05 0  0.3 0.05 0  0.35 0.05 0  0.4 0.05 0  0.45 0.05 0  0.5 0.05 0  0.55 0.05 0  0.6 0.05 0  0.65 0.05 0  0.7 0.05 0  0.75 0.05 0  0.8 0.05 0  0.85 0.05 0  0.9 0.05 0  0.95 0.05 0  1 0.05 0  0 0.1 0  0.05 0.1 0  0.1 0.1 0  0.15 0.1 0  0.2 0.1 0  0.25 0.1 0  0.3 0.1 0  0.35 0.1 0  0.4 0.1 0  0.45 0.1 0  0.5 0.1 0  0.55 0.1 0  0.6 0.1 0  0.65 0.1 0  0.7 0.1 0  0.75 0.1 0  0.8 0.1 0  0.85 0.1 0  0.9 0.1 0  0.95 0.1 0  1 0.1 0  0 0.15 0  0.05 0.15 0  0.1 0.15 0  0.15 0.15 0  0.2 0.15 0  0.25 0.15 0  0.3 0.15 0  0.35 0.15 0  0.4 0.15 0  0.45 0.15 0  0.5 0.15 0  0.55 0.15 0  0.6 0.15 0  0.65 0.15 0  0.7 0.15 0  0.75 0.15 0  0.8 0.15 0  0.85 0.15 0  0.9 0.15 0  0.95 0.15 0  1 0.15 0  0 0.2 0  0.05 0.2 0  0.1 0.2 0  0.15 0.2 0  0.2 0.2 0  0.25 0.2 0  0.3 0.2 0  0.35 0.2 0  0.4 0.2 0  0.45 0.2 0  0.5 0.2 0  0.55 0.2 0  0.6 0.2 0  0.65 0.2 0  0.7 0.2 0  0.75 0.2 0  0.8 0.2 0  0.85 0.2 0  0.9 0.2 0  0.95 0.2 0  1 0.2 0  0 0.25 0  0.05 0.25 0  0.1 0.25 0  0.15 0.25 0  0.2 0.25 0  0.25 0.25 0  0.3 0.25 0  0.35 0.25 0  0.4 0.25 0  0.45 0.25 0  0.5 0.25 0  0.55 0.25 0  0.6 0.25 0  0.65 0.25 0  0.7 0.25 0  0.75 0.25 0  0.8 0.25 0  0.85 0.25 0  0.9 0.25 0  0.95 0.25 0  1 0.25 0  0 0.3 0  0.05 0.3 0  0.1 0.3 0  0.15 0.3 0  0.2 0.3 0  0.25 0.3 0  0.3 0.3 0  0.35 0.3 0  0.4 0.3 0  0.45 0.3 0  0.5 0.3 0  0.55 0.3 0  0.6 0.3 0  0.65 0.3 0  0.7 0.3 0  0.75 0.3 0  0.8 0.3 0  0.85 0.3 0  0.9 0.3 0  0.95 0.3 0  1 0.3 0  0 0.35 0  0.05 0.35 0  0.1 0.35 0  0.15 0.35 0  0.2 0.35 0  0.25 0.35 0  0.3 0.35 0  0.35 0.35 0  0.4 0.35 0  0.45 0.35 0  0.5 0.35 0  0.55 0.35 0  0.6 0.35 0  0.65 0.35 0  0.7 0.35 0  0.75 0.35 0  0.8 0.35 0  0.85 0.35 0  0.9 0.35 0  0.95 0.35 0  1 0.35 0  0 0.4 0  0.05 0.4 0  0.1 0.4 0  0.15 0.4 0  0.2 0.4 0  0.25 0.4 0  0.3 0.4 0  0.35 0.4 0  0.4 0.4 0  0.45 0.4 0  0.5 0.4 0  0.55 0.4 0  0.6 0.4 0  0.65 0.4 0  0.7 0.4 0  0.75 0.4 0  0.8 0.4 0  0.85 0.4 0  0.9 0.4 0  0.95 0.4 0  1 0.4 0  0 0.45 0  0.05 0.45 0  0.1 0.45 0  0.15 0.45 0  0.2 0.45 0  0.25 0.45 0  0.3 0.45 0  0.35 0.45 0  0.4 0.45 0  0.45 0.45 0  0.5 0.45 0  0.55 0.45 0  0.6 0.45 0  0.65 0.45 0  0.7 0.45 0  0.75 0.45 0  0.8 0.45 0  0.85 0.45 0  0.9 0.45 0  0.95 0.45 0  1 0.45 0  0 0.5 0  0.05 0.5 0  0.1 0.5 0  0.15 0.5 0  0.2 0.5 0  0.25 0.5 0  0.3 0.5 0  0.35 0.5 0  0.4 0.5 0  0.45 0.5 0  0.5 0.5 0  0.55 0.5 0  0.6 0.5 0  0.65 0.5 0  0.7 0.5 0  0.75 0.5 0  0.8 0.5 0  0.85 0.5 0  0.9 0.5 0  0.95 0.5 0  1 0.5 0  0 0.55 0  0.05 0.55 0  0.1 0.55 0  0.15 0.55 0  0.2 0.55 0  0.25 0.55 0  0.3 0.55 0  0.35 0.55 0  0.4 0.55 0  0.45 0.55 0  0.5 0.55 0  0.55 0.55 0  0.6 0.55 0  0.65 0.55 0  0.7 0.55 0  0.75 0.55 0  0.8 0.55 0  0.85 0.55 0  0.9 0.55 0  0.95 0.55 0  1 0.55 0  0 0.6 0  0.05 0.6 0  0.1 0.6 0  0.15 0.6 0  0.2 0.6 0  0.25 0.6 0  0.3 0.6 0  0.35 0.6 0  0.4 0.6 0  0.45 0.6 0  0.5 0.6 0  0.55 0.6 0  0.6 0.6 0  0.65 0.6 0  0.7 0.6 0  0.75 0.6 0  0.8 0.6 0  0.85 0.6 0  0.9 0.6 0  0.95 0.6 0  1 0.6 0  0 0.65 0  0.05 0.65 0  0.1 0.65 0  0.15 0.65 0  0.2 0.65 0  0.25 0.65 0  0.3 0.65 0  0.35 0.65 0  0.4 0.65 0  0.45 0.65 0  0.5 0.65 0  0.55 0.65 0  0.6 0.65 0  0.65 0.65 0  0.7 0.65 0  0.75 0.65 0  0.8 0.65 0  0.85 0.65 0  0.9 0.65 0  0.95 0.65 0  1 0.65 0  0 0.7 0  0.05 0.7 0  0.1 0.7 0  0.15 0.7 0  0.2 0.7 0  0.25 0.7 0  0.3 0.7 0  0.35 0.7 0  0.4 0.7 0  0.45 0.7 0  0.5 0.7 0  0.55 0.7 0  0.6 0.7 0  0.65 0.7 0  0.7 0.7 0  0.75 0.7 0  0.8 0.7 0  0.85 0.7 0  0.9 0.7 0  0.95 0.7 0  1 0.7 0  0 0.75 0  0.05 0.75 0  0.1 0.75 0  0.15 0.75 0  0.2 0.75 0  0.25 0.75 0  0.3 0.75 0  0.35 0.75 0  0.4 0.75 0  0.45 0.75 0  0.5 0.75 0  0.55 0.75 0  0.6 0.75 0  0.65 0.75 0  0.7 0.75 0  0.75 0.75 0  0.8 0.75 0  0.85 0.75 0  0.9 0.75 0  0.95 0.75 0  1 0.75 0  0 0.8 0  0.05 0.8 0  0.1 0.8 0  0.15 0.8 0  0.2 0.8 0  0.25 0.8 0  0.3 0.8 0  0.35 0.8 0  0.4 0.8 0  0.45 0.8 0  0.5 0.8 0  0.55 0.8 0  0.6 0.8 0  0.65 0.8 0  0.7 0.8 0  0.75 0.8 0  0.8 0.8 0  0.85 0.8 0  0.9 0.8 0  0.95 0.8 0  1 0.8 0  0 0.85 0  0.05 0.85 0  0.1 0.85 0  0.15 0.85 0  0.2 0.85 0  0.25 0.85 0  0.3 0.85 0  0.35 0.85 0  0.4 0.85 0  0.45 0.85 0  0.5 0.85 0  0.55 0.85 0  0.6 0.85 0  0.65 0.85 0  0.7 0.85 0  0.75 0.85 0  0.8 0.85 0  0.85 0.85 0  0.9 0.85 0  0.95 0.85 0  1 0.85 0  0 0.9 0  0.05 0.9 0  0.1 0.9 0  0.15 0.9 0  0.2 0.9 0  0.25 0.9 0  0.3 0.9 0  0.35 0.9 0  0.4 0.9 0  0.45 0.9 0  0.5 0.9 0  0.55 0.9 0  0.6 0.9 0  0.65 0.9 0  0.7 0.9 0  0.75 0.9 0  0.8 0.9 0  0.85 0.9 0  0.9 0.9 0  0.95 0.9 0  1 0.9 0  0 0.95 0  0.05 0.95 0  0.1 0.95 0  0.15 0.95 0  0.2 0.95 0  0.25 0.95 0  0.3 0.95 0  0.35 0.95 0  0.4 0.95 0  0.45 0.95 0  0.5 0.95 0  0.55 0.95 0  0.6 0.95 0  0.65 0.95 0  0.7 0.95 0  0.75 0.95 0  0.8 0.95 0  0.85 0.95 0  0.9 0.95 0  0.95 0.95 0  1 0.95 0  0 1 0  0.05 1 0  0.1 1 0  0.15 1 0  0.2 1 0  0.25 1 0  0.3 1 0  0.35 1 0  0.4 1 0  0.45 1 0  0.5 1 0  0.55 1 0  0.6 1 0  0.65 1 0  0.7 1 0  0.75 1 0  0.8 1 0  0.85 1 0  0.9 1 0  0.95 1 0  1 1 0  </DataArray>
</Points>
<Cells>
[...]
<PointData  Scalars="u"> 
<DataArray  type="Float64"  Name="u"  format="ascii">0.0000000000000000e+00  0.0000000000000000e+00  0.0000000000000000e+00  0.0000000000000000e+00  0.0000000000000000e+00  0.0000000000000000e+00  0.0000000000000000e+00  0.0000000000000000e+00  0.0000000000000000e+00  0.0000000000000000e+00  0.0000000000000000e+00  0.0000000000000000e+00  0.0000000000000000e+00  0.0000000000000000e+00  0.0000000000000000e+00  0.0000000000000000e+00  0.0000000000000000e+00  0.0000000000000000e+00  0.0000000000000000e+00  0.0000000000000000e+00  0.0000000000000000e+00  0.0000000000000000e+00  -1.9905530922224801e-02  -1.7582206689514854e-02  -1.7016662720490759e-02  -1.5677338115865917e-02  -1.3911772466057551e-02  -1.1593753188189925e-02  -8.5460615421409300e-03  -4.6496661718360309e-03  -3.7438148913260456e-05  4.8650527902515117e-03  9.4223262350392883e-03  1.2931016939855428e-02  1.5062371144899030e-02  1.6187773863810921e-02  1.7258846987840630e-02  1.9334223789170050e-02  2.3783932323006400e-02  3.0960763639355147e-02  5.0066941232654455e-02  3.1083589976781619e-02  0.0000000000000000e+00  -3.8830030872583507e-02  -4.5412266132822877e-02  -4.2553975483806274e-02  -3.7783949493796556e-02  -3.2430839461001372e-02  -2.6609581407210099e-02  -2.0101340461687035e-02  -1.2633427500246142e-02  -4.3147012294864479e-03  4.2405878562497504e-03  1.2145651205977720e-02  1.8624638008933284e-02  2.3480487047456134e-02  2.7340121588745638e-02  3.1451988525417300e-02  3.7362365396002253e-02  4.6661152128984494e-02  6.1686551106173909e-02  8.0524926373134395e-02  7.6727784671972304e-02  0.0000000000000000e+00  -4.7224214202915650e-02  -6.4067560572256266e-02  -6.5064625370821985e-02  -5.9776482711138897e-02  -5.2008475546301100e-02  -4.3141864808007933e-02  -3.3400286934908020e-02  -2.2686266783059666e-02  -1.1199904691582364e-02  3.6239093164542170e-04  1.1103352084253216e-02  2.0361471110068721e-02  2.8095421469080763e-02  3.5023491167452889e-02  4.2402625536592173e-02  5.1670800639905298e-02  6.4117982311512389e-02  7.9734992707088767e-02  9.4048714171634976e-02  9.1619021370490966e-02  0.0000000000000000e+00  -5.0309464735711282e-02  -7.4227939061355247e-02  -8.0557066421013762e-02  -7.7279849637492931e-02  -6.9181916953937786e-02  -5.8604214089877746e-02  -4.6482052451331399e-02  -3.3164976176905017e-02  -1.9094807848574771e-02  -5.0516570929363819e-03  8.1106271806212736e-03  1.9843479294426862e-02  3.0182421855196692e-02  3.9804158518991245e-02  4.9777171316240799e-02  6.1171595484122057e-02  7.4502925986662749e-02  8.8780796349376620e-02  1.0063306443429192e-01  1.0120719795001162e-01  0.0000000000000000e+00  -5.0776327270129970e-02  -7.8553408349270534e-02  -8.9341121674213569e-02  -8.9070318353124081e-02  -8.2109007270590090e-02  -7.1177644025337911e-02  -5.7757744056608280e-02  -4.2682868549770207e-02  -2.6719157232672423e-02  -1.0774795458596970e-02  4.3070541877267008e-03  1.8032884021782939e-02  3.0437725714848800e-02  4.2078952302930024e-02  5.3776409523714735e-02  6.6224341872693437e-02  7.9522669294593507e-02  9.2739186919989919e-02  1.0372832634960581e-01  1.0662114513540043e-01  0.0000000000000000e+00  -4.9733976040229597e-02  -7.9246783065397688e-02  -9.3086126876541747e-02  -9.5610831088773773e-02  -9.0403755437647962e-02  -8.0061996320528517e-02  -6.6302159486617038e-02  -5.0328717794293418e-02  -3.3213027925130555e-02  -1.6011783560211445e-02  4.0058402753062963e-04  1.5531150480589180e-02  2.9367597469037481e-02  4.2330323380054317e-02  5.5024929416644441e-02  6.7912138223941057e-02  8.0982364024227774e-02  9.3573351743033134e-02  1.0419302768783974e-01  1.0863295478808631e-01  0.0000000000000000e+00  -4.7749599163447176e-02  -7.7608452148285947e-02  -9.3227166227234218e-02  -9.7918234321235115e-02  -9.4503223332237846e-02  -8.5230094214731544e-02  -7.1820897585570753e-02  -5.5685734558894626e-02  -3.8118315509626077e-02  -2.0306055304360728e-02  -3.1732683051346761e-03  1.2758354372938860e-02  2.7414438191118305e-02  4.1096828978882061e-02  5.4261460939838441e-02  6.7250348887206504e-02  8.0057041258854225e-02  9.2226102016335645e-02  1.0262056178295864e-01  1.0811905577449318e-01  0.0000000000000000e+00  -4.5150564343074934e-02  -7.4408867976349102e-02  -9.0825427360669897e-02  -9.6995402386109056e-02  -9.5123378487955407e-02  -8.7073641651836717e-02  -7.4443259328857675e-02  -5.8707581631886954e-02  -4.1284600059853238e-02  -2.3447549661558844e-02  -6.1628292819630379e-03  1.0014836040165138e-02  2.4955159097185237e-02  3.8870300978805082e-02  5.2117942196504785e-02  6.4978742481048443e-02  7.7468428260122416e-02  8.9263036621077263e-02  9.9436656148207264e-02  1.0560947888132707e-01  0.0000000000000000e+00  -4.2131029148301205e-02  -7.0132758128026079e-02  -8.6612413919449294e-02  -9.3653611212507870e-02  -9.2989142172498845e-02  -8.6136193039445003e-02  -7.4515148424681765e-02  -5.9572825021108028e-02  -4.2763949560527606e-02  -2.5393722995685784e-02  -8.4464304938002277e-03  7.5020140092074122e-03  2.2280614822732782e-02  3.6037454202850074e-02  4.9063409604508293e-02  6.1600527142137915e-02  7.3679814527010251e-02  8.5056586506045861e-02  9.4939567798283706e-02  1.0147577699981085e-01  0.0000000000000000e+00  -3.8815912539565144e-02  -6.5096528781297194e-02  -8.1094637723516633e-02  -8.8513565959208382e-02  -8.8727160040307076e-02  -8.2962355341280575e-02  -7.2454547848864820e-02  -5.8565836185347629e-02  -4.2720616573568890e-02  -2.6206007240345240e-02  -9.9942477839506903e-03  5.3362350167738149e-03  1.9590542727530139e-02  3.2871798231449298e-02  4.5421759613340364e-02  5.7451752326199958e-02  6.8997867318725745e-02  7.9862557616455596e-02  8.9349367811935476e-02  9.5993538076750026e-02  0.0000000000000000e+00  -3.5289146538730082e-02  -5.9514609522708518e-02  -7.4628545553272349e-02  -8.2038834059358218e-02  -8.2843540530503496e-02  -7.8033855445031317e-02  -6.8670034406652064e-02  -5.5998830237543221e-02  -4.1367107030956564e-02  -2.6002930601404191e-02  -1.0838037291266540e-02  3.5658591668976604e-03  1.7004933201568991e-02  2.9550867802277076e-02  4.1406447709955690e-02  5.2755038056394227e-02  6.3630384563643297e-02  7.3863998067613082e-02  8.2834273089781488e-02  8.9372269317844505e-02  0.0000000000000000e+00  -3.1609428105325292e-02  -5.3537239054952057e-02  -6.7469241904446017e-02  -7.4574349290672318e-02  -7.5734764978252656e-02  -7.1750963382896729e-02  -6.3523717322318818e-02  -5.2168998979320286e-02  -3.8924308420204327e-02  -2.4927671711037585e-02  -1.1046680717391691e-02  2.1903520365582968e-03  1.4582717177660982e-02  2.6180123365462157e-02  3.7152715615665514e-02  4.7657433559532246e-02  5.7721755932432610e-02  6.7197076544436934e-02  7.5527616708493311e-02  8.1777210417597779e-02  0.0000000000000000e+00  -2.7819025564855507e-02  -4.7272286775540191e-02  -5.9802228895055383e-02  -6.6377316356543190e-02  -6.7706750162822391e-02  -6.4435335783563821e-02  -5.7320086331097718e-02  -4.7339091723450619e-02  -3.5599595948141723e-02  -2.3127297750671384e-02  -1.0707504160454483e-02  1.1780395471394488e-03  1.2340835974180328e-02  2.2815257854248875e-02  3.2743178844346424e-02  4.2256658105310908e-02  5.1375689721292396e-02  5.9967728455437935e-02  6.7539905938891254e-02  7.3344672700163871e-02  0.0000000000000000e+00  -2.3948933019702738e-02  -4.0798614738731226e-02  -5.1764144261538136e-02  -5.7640331227026380e-02  -5.8994030610246315e-02  -5.6340806055117765e-02  -5.0307530949197918e-02  -4.1731692237578701e-02  -3.1576784091357134e-02  -2.0740649440751508e-02  -9.9130956283956795e-03  4.8046571297308591e-04  1.0270322357373877e-02  1.9480162204241671e-02  2.8226818842196678e-02  3.6619206827938622e-02  4.4670318070793559e-02  5.2262897138405935e-02  5.8967363998076491e-02  6.4192908074098290e-02  0.0000000000000000e+00  -2.0022094740780087e-02  -3.4174568739191086e-02  -4.3456633378170434e-02  -4.8508341345214215e-02  -4.9776118526023698e-02  -4.7665837949456419e-02  -4.2685232121769272e-02  -3.5530636543698653e-02  -2.7013175720493419e-02  -1.7892257224171763e-02  -8.7529008240450398e-03  4.2757718115833241e-05  8.3483809334717607e-03  1.6180202451838772e-02  2.3632465611145792e-02  3.0792726842867272e-02  3.7668350401509870e-02  4.4158188493887016e-02  4.9897916375254502e-02  5.4429758842416409e-02  0.0000000000000000e+00  -1.6055556132835033e-02  -2.7443643306927043e-02  -3.4955956367272945e-02  -3.9091105049525295e-02  -4.0190714125138520e-02  -3.8565197844847514e-02  -3.4611644293939980e-02  -2.8885666182278655e-02  -2.2040574108021731e-02  -1.4690259743434212e-02  -7.3086004690517022e-03  -1.8967992137516331e-04  6.5466487989721493e-03  1.2911367756388637e-02  1.8977979157490228e-02  2.4814361154805561e-02  3.0423922232683885e-02  3.5723069896226332e-02  4.0415263969493118e-02  4.4157845761323825e-02  0.0000000000000000e+00  -1.2061764908428097e-02  -2.0638568287276404e-02  -2.6319879943418816e-02  -2.9472508813507003e-02  -3.0344236702876115e-02  -2.9160136124321997e-02  -2.6212939243243371e-02  -2.1918312183294097e-02  -1.6768378110508120e-02  -1.1226871559720995e-02  -5.6522896293830409e-03  -2.6747381581709119e-04  4.8362511352166475e-03  9.6660825018167838e-03  1.4276146926401572e-02  1.8716032633179724e-02  2.2986755465109018e-02  2.7023941374900069e-02  3.0601373611825251e-02  3.3477892858447530e-02  0.0000000000000000e+00  -8.0508534416588035e-03  -1.3784251545415451e-02  -1.7592829797709937e-02  -1.9717689567706694e-02  -2.0320196571036269e-02  -1.9546882198206130e-02  -1.7590594363011188e-02  -1.4727851666191089e-02  -1.1287567499893434e-02  -7.5803548445128825e-03  -3.8465919890386308e-03  -2.3582219694008480e-04  3.1904469062992652e-03  6.4365661154385505e-03  9.5382062299609830e-03  1.2527709875496324e-02  1.5405219901927532e-02  1.8127049144694790e-02  2.0538832794911574e-02  2.2490775568815131e-02  0.0000000000000000e+00  -4.0293972276607215e-03  -6.8998052965041738e-03  -8.8096084897586486e-03  -9.8787769973497207e-03  -1.0186165366028994e-02  -9.8042984307651123e-03  -8.8287939155052599e-03  -7.3976694072493973e-03  -5.6755250769510782e-03  -3.8181651126026556e-03  -1.9462222840619023e-03  -1.3472959419010840e-04  1.5853727941523130e-03  3.2161519651228892e-03  4.7753566468818455e-03  6.2789002919354103e-03  7.7269209822853043e-03  9.0968088434045247e-03  1.0308621521918859e-02  1.1295881145291934e-02  0.0000000000000000e+00  0.0000000000000000e+00  0.0000000000000000e+00  0.0000000000000000e+00  0.0000000000000000e+00  0.0000000000000000e+00  0.0000000000000000e+00  0.0000000000000000e+00  0.0000000000000000e+00  0.0000000000000000e+00  0.0000000000000000e+00  0.0000000000000000e+00  0.0000000000000000e+00  0.0000000000000000e+00  0.0000000000000000e+00  0.0000000000000000e+00  0.0000000000000000e+00  0.0000000000000000e+00  0.0000000000000000e+00  0.0000000000000000e+00  0.0000000000000000e+00  </DataArray> 
</PointData> 
</Piece>
</UnstructuredGrid>
</VTKFile>