<?xml version="1.0"?>
<VTKFile type="UnstructuredGrid"  version="0.1"  >
<UnstructuredGrid>
<Piece  NumberOfPoints="441" NumberOfCells="800">
<Points>
<DataArray  type="Float64"  NumberOfComponents="3"  format="ascii">0 0 0  0.05 0 0  0.1 0 0  0.15 0 0  0.2 0 0  0.25 0 0  0.3 0 0  0.35 0 0  0.4 0 0  0.45 0 0  0.5 0 0  0.55 0 0  0.6 0 0  0.65 0 0  0.7 0 0  0.75 0 0  0.8 0 0  0.85 0 0  0.9 0 0  0.95 0 0  1 0 0  0 0.05 0  0.05 0.05 0  0.1 0.05 0  0.15 0.05 0  0.2 0.05 0  0.25 0.05 0  0.3 0.05 0  0.35 0.05 0  0.4 0.05 0  0.45 0.05 0  0.5 0.05 0  0.55 0.05 0  0.6 0.05 0  0.65 0.05 0  0.7 0.05 0  0.75 0.05 0  0.8 0.05 0  0.85 0.05 0  0.9 0.05 0  0.95 0.05 0  1 0.05 0  0 0.1 0  0.05 0.1 0  0.1 0.1 0  0.15 0.1 0  0.2 0.1 0  0.25 0.1 0  0.3 0.1 0  0.35 0.1 0  0.4 0.1 0  0.45 0.1 0  0.5 0.1 0  0.55 0.1 0  0.6 0.1 0  0.65 0.1 0  0.7 0.1 0  0.75 0.1 0  0.8 0.1 0  0.85 0.1 0  0.9 0.1 0  0.95 0.1 0  1 0.1 0  0 0.15 0  0.05 0.15 0  0.1 0.15 0  0.15 0.15 0  0.2 0.15 0  0.25 0.15 0  0.3 0.15 0  0.35 0.15 0  0.4 0.15 0  0.45 0.15 0  0.5 0.15 0  0.55 0.15 0  0.6 0.15 0  0.65 0.15 0  0.7 0.15 0  0.75 0.15 0  0.8 0.15 0  0.85 0.15 0  0.9 0.15 0  0.95 0.15 0  1 0.15 0  0 0.2 0  0.05 0.2 0  0.1 0.2 0  0.15 0.2 0  0.2 0.2 0  0.25 0.2 0  0.3 0.2 0  0.35 0.2 0  0.4 0.2 0  0.45 0.2 0  0.5 0.2 0  0.55 0.2 0  0.6 0.2 0  0.65 0.2 0  0.7 0.2 0  0.75 0.2 0  0.8 0.2 0  0.85 0.2 0  0.9 0.2 0  0.95 0.2 0  1 0.2 0  0 0.25 0  0.05 0.25 0  0.1 0.25 0  0.15 0.25 0  0.2 0.25 0  0.25 0.25 0  0.3 0.25 0  0.35 0.25 0  0.4 0.25 0  0.45 0.25 0  0.5 0.25 0  0.55 0.25 0  0.6 0.25 0  0.65 0.25 0  0.7 0.25 0  0.75 0.25 0  0.8 0.25 0  0.85 0.25 0  0.9 0.25 0  0.95 0.25 0  1 0.25 0  0 0.3 0  0.05 0.3 0  0.1 0.3 0  0.15 0.3 0  0.2 0.3 0  0.25 0.3 0  0.3 0.3 0  0.35 0.3 0  0.4 0.3 0  0.45 0.3 0  0.5 0.3 0  0.55 0.3 0  0.6 0.3 0  0.65 0.3 0  0.7 0.3 0  0.75 0.3 0  0.8 0.3 0  0.85 0.3 0  0.9 0.3 0  0.95 0.3 0  1 0.3 0  0 0.35 0  0.05 0.35 0  0.1 0.35 0  0.15 0.35 0  0.2 0.35 0  0.25 0.35 0  0.3 0.35 0  0.35 0.35 0  0.4 0.35 0  0.45 0.35 0  0.5 0.35 0  0.55 0.35 0  0.6 0.35 0  0.65 0.35 0  0.7 0.35 0  0.75 0.35 0  0.8 0.35 0  0.85 0.35 0  0.9 0.35 0  0.95 0.35 0  1 0.35 0  0 0.4 0  0.05 0.4 0  0.1 0.4 0  0.15 0.4 0  0.2 0.4 0  0.25 0.4 0  0.3 0.4 0  0.35 0.4 0  0.4 0.4 0  0.45 0.4 0  0.5 0.4 0  0.55 0.4 0  0.6 0.4 0  0.65 0.4 0  0.7 0.4 0  0.75 0.4 0  0.8 0.4 0  0.85 0.4 0  0.9 0.4 0  0.95 0.4 0  1 0.4 0  0 0.45 0  0.05 0.45 0  0.1 0.45 0  0.15 0.45 0  0.2 0.45 0  0.25 0.45 0  0.3 0.45 0  0.35 0.45 0  0.4 0.45 0  0.45 0.45 0  0.5 0.45 0  0.55 0.45 0  0.6 0.45 0  0.65 0.45 0  0.7 0.45 0  0.75 0.45 0  0.8 0.45 0  0.85 0.45 0  0.9 0.45 0  0.95 0.45 0  1 0.45 0  0 0.5 0  0.05 0.5 0  0.1 0.5 0  0.15 0.5 0  0.2 0.5 0  0.25 0.5 0  0.3 0.5 0  0.35 0.5 0  0.4 0.5 0  0.45 0.5 0  0.5 0.5 0  0.55 0.5 0  0.6 0.5 0  0.65 0.5 0  0.7 0.5 0  0.75 0.5 0  0.8 0.5 0  0.85 0.5 0  0.9 0.5 0  0.95 0.5 0  1 0.5 0  0 0.55 0  0.05 0.55 0  0.1 0.55 0  0.15 0.55 0  0.2 0.55 0  0.25 0.55 0  0.3 0.55 0  0.35 0.55 0  0.4 0.55 0  0.45 0.55 0  0.5 0.55 0  0.55 0.55 0  0.6 0.55 0  0.65 0.55 0  0.7 0.55 0  0.75 0.55 0  0.8 0.55 0  0.85 0.55 0  0.9 0.55 0  0.95 0.55 0  1 0.55 0  0 0.6 0  0.05 0.6 0  0.1 0.6 0  0.15 0.6 0  0.2 0.6 0  0.25 0.6 0  0.3 0.6 0  0.35 0.6 0  0.4 0.6 0  0.45 0.6 0  0.5 0.6 0  0.55 0.6 0  0.6 0.6 0  0.65 0.6 0  0.7 0.6 0  0.75 0.6 0  0.8 0.6 0  0.85 0.6 0  0.9 0.6 0  0.95 0.6 0  1 0.6 0  0 0.65 0  0.05 0.65 0  0.1 0.65 0  0.15 0.65 0  0.2 0.65 0  0.25 0.65 0  0.3 0.65 0  0.35 0.65 0  0.4 0.65 0  0.45 0.65 0  0.5 0.65 0  0.55 0.65 0  0.6 0.65 0  0.65 0.65 0  0.7 0.65 0  0.75 0.65 0  0.8 0.65 0  0.85 0.65 0  0.9 0.65 0  0.95 0.65 0  1 0.65 0  0 0.7 0  0.05 0.7 0  0.1 0.7 0  0.15 0.7 0  0.2 0.7 0  0.25 0.7 0  0.3 0.7 0  0.35 0.7 0  0.4 0.7 0  0.45 0.7 0  0.5 0.7 0  0.55 0.7 0  0.6 0.7 0  0.65 0.7 0  0.7 0.7 0  0.75 0.7 0  0.8 0.7 0  0.85 0.7 0  0.9 0.7 0  0.95 0.7 0  1 0.7 0  0 0.75 0  0.05 0.75 0  0.1 0.75 0  0.15 0.75 0  0.2 0.75 0  0.25 0.75 0  0.3 0.75 0  0.35 0.75 0  0.4 0.75 0  0.45 0.75 0  0.5 0.75 0  0.55 0.75 0  0.6 0.75 0  0.65 0.75 0  0.7 0.75 0  0.75 0.75 0  0.8 0.75 0  0.85 0.75 0  0.9 0.75 0  0.95 0.75 0  1 0.75 0  0 0.8 0  0.05 0.8 0  0.1 0.8 0  0.15 0.8 0  0.2 0.8 0  0.25 0.8 0  0.3 0.8 0  0.35 0.8 0  0.4 0.8 0  0.45 0.8 0  0.5 0.8 0  0.55 0.8 0  0.6 0.8 0  0.65 0.8 0  0.7 0.8 0  0.75 0.8 0  0.8 0.8 0  0.85 0.8 0  0.9 0.8 0  0.95 0.8 0  1 0.8 0  0 0.85 0  0.05 0.85 0  0.1 0.85 0  0.15 0.85 0  0.2 0.85 0  0.25 0.85 0  0.3 0.85 0  0.35 0.85 0  0.4 0.85 0  0.45 0.85 0  0.5 0.85 0  0.55 0.85 0  0.6 0.85 0  0.65 0.85 0  0.7 0.85 0  0.75 0.85 0  0.8 0.85 0  0.85 0.85 0  0.9 0.85 0  0.95 0.85 0  1 0.85 0  0 0.9 0  0.05 0.9 0  0.1 0.9 0  0.15 0.9 0  0.2 0.9 0  0.25 0.9 0  0.3 0.9 0  0.35 0.9 0  0.4 0.9 0  0.45 0.9 0  0.5 0.9 0  0.55 0.9 0  0.6 0.9 0  0.65 0.9 0  0.7 0.9 0  0.75 0.9 0  0.8 0.9 0  0.85 0.9 0  0.9 0.9 0  0.95 0.9 0  1 0.9 0  0 0.95 0  0.05 0.95 0  0.1 0.95 0  0.15 0.95 0  0.2 0.95 0  0.25 0.95 0  0.3 0.95 0  0.35 0.95 0  0.4 0.95 0  0.45 0.95 0  0.5 0.95 0  0.55 0.95 0  0.6 0.95 0  0.65 0.95 0  0.7 0.95 0  0.75 0.95 0  0.8 0.95 0  0.85 0.95 0  0.9 0.95 0  0.95 0.95 0  1 0.95 0  0 1 0  0.05 1 0  0.1 1 0  0.15 1 0  0.2 1 0  0.25 1 0  0.3 1 0  0.35 1 0  0.4 1 0  0.45 1 0  0.5 1 0  0.55 1 0  0.6 1 0  0.65 1 0  0.7 1 0  0.75 1 0  0.8 1 0  0.85 1 0  0.9 1 0  0.95 1 0  1 1 0  </DataArray>
</Points>
<Cells>
[...]
<PointData  Vectors="u"> 
<DataArray  type="Float64"  Name="u"  NumberOfComponents="3" format="ascii">0.0000000000000000e+00 0.0000000000000000e+00 0.0000000000000000e+00  0.0000000000000000e+00 0.0000000000000000e+00 0.0000000000000000e+00  0.0000000000000000e+00 0.0000000000000000e+00 0.0000000000000000e+00  0.0000000000000000e+00 0.0000000000000000e+00 0.0000000000000000e+00  0.0000000000000000e+00 0.0000000000000000e+00 0.0000000000000000e+00  0.0000000000000000e+00 0.0000000000000000e+00 0.0000000000000000e+00  0.0000000000000000e+00 0.0000000000000000e+00 0.0000000000000000e+00  0.0000000000000000e+00 0.0000000000000000e+00 0.0000000000000000e+00  0.0000000000000000e+00 0.0000000000000000e+00 0.0000000000000000e+00  0.0000000000000000e+00 0.0000000000000000e+00 0.0000000000000000e+00  0.0000000000000000e+00 0.0000000000000000e+00 0.0000000000000000e+00  0.0000000000000000e+00 0.0000000000000000e+00 0.0000000000000000e+00  0.0000000000000000e+00 0.0000000000000000e+00 0.0000000000000000e+00  0.0000000000000000e+00 0.0000000000000000e+00 0.0000000000000000e+00  0.0000000000000000e+00 0.0000000000000000e+00 0.0000000000000000e+00  0.0000000000000000e+00 0.0000000000000000e+00 0.0000000000000000e+00  0.0000000000000000e+00 0.0000000000000000e+00 0.0000000000000000e+00  0.0000000000000000e+00 0.0000000000000000e+00 0.0000000000000000e+00  0.0000000000000000e+00 0.0000000000000000e+00 0.0000000000000000e+00  0.0000000000000000e+00 0.0000000000000000e+00 0.0000000000000000e+00  0.0000000000000000e+00 0.0000000000000000e+00 0.0000000000000000e+00  0.0000000000000000e+00 0.0000000000000000e+00 0.0000000000000000e+00  0.0000000000000000e+00 0.0000000000000000e+00 0.0000000000000000e+00  0.0000000000000000e+00 0.0000000000000000e+00 0.0000000000000000e+00  0.0000000000000000e+00 0.0000000000000000e+00 0.0000000000000000e+00  0.0000000000000000e+00 0.0000000000000000e+00 0.0000000000000000e+00  0.0000000000000000e+00 0.0000000000000000e+00 0.0000000000000000e+00  0.0000000000000000e+00 0.0000000000000000e+00 0.0000000000000000e+00  0.0000000000000000e+00 0.0000000000000000e+00 0.0000000000000000e+00  0.0000000000000000e+00 0.0000000000000000e+00 0.0000000000000000e+00  0.0000000000000000e+00 0.0000000000000000e+00 0.0000000000000000e+00  0.0000000000000000e+00 0.0000000000000000e+00 0.0000000000000000e+00  0.0000000000000000e+00 0.0000000000000000e+00 0.0000000000000000e+00  0.0000000000000000e+00 0.0000000000000000e+00 0.0000000000000000e+00  0.0000000000000000e+00 0.0000000000000000e+00 0.0000000000000000e+00  0.0000000000000000e+00 0.0000000000000000e+00 0.0000000000000000e+00  0.0000000000000000e+00 0.0000000000000000e+00 0.0000000000000000e+00  0.0000000000000000e+00 0.0000000000000000e+00 0.0000000000000000e+00  0.0000000000000000e+00 0.0000000000000000e+00 0.0000000000000000e+00  0.0000000000000000e+00 0.0000000000000000e+00 0.0000000000000000e+00  0.0000000000000000e+00 0.0000000000000000e+00 0.0000000000000000e+00  0.0000000000000000e+00 0.0000000000000000e+00 0.0000000000000000e+00  0.0000000000000000e+00 0.0000000000000000e+00 0.0000000000000000e+00  0.0000000000000000e+00 0.0000000000000000e+00 0.0000000000000000e+00  0.0000000000000000e+00 0.0000000000000000e+00 0.0000000000000000e+00  0.0000000000000000e+00 0.0000000000000000e+00 0.0000000000000000e+00  3.5556604232216679e-16 0.0000000000000000e+00 0.0000000000000000e+00  0.0000000000000000e+00 0.0000000000000000e+00 0.0000000000000000e+00  3.5436093466263977e-16 0.0000000000000000e+00 0.0000000000000000e+00  0.0000000000000000e+00 0.0000000000000000e+00 0.0000000000000000e+00  4.3980997593172406e-16 0.0000000000000000e+00 0.0000000000000000e+00  0.0000000000000000e+00 0.0000000000000000e+00 0.0000000000000000e+00  0.0000000000000000e+00 0.0000000000000000e+00 0.0000000000000000e+00  0.0000000000000000e+00 0.0000000000000000e+00 0.0000000000000000e+00  0.0000000000000000e+00 0.0000000000000000e+00 0.0000000000000000e+00  0.0000000000000000e+00 0.0000000000000000e+00 0.0000000000000000e+00  0.0000000000000000e+00 0.0000000000000000e+00 0.0000000000000000e+00  0.0000000000000000e+00 0.0000000000000000e+00 0.0000000000000000e+00  0.0000000000000000e+00 0.0000000000000000e+00 0.0000000000000000e+00  0.0000000000000000e+00 0.0000000000000000e+00 0.0000000000000000e+00  0.0000000000000000e+00 0.0000000000000000e+00 0.0000000000000000e+00  0.0000000000000000e+00 0.0000000000000000e+00 0.0000000000000000e+00  0.0000000000000000e+00 0.0000000000000000e+00 0.0000000000000000e+00  0.0000000000000000e+00 0.0000000000000000e+00 0.0000000000000000e+00  0.0000000000000000e+00 0.0000000000000000e+00 0.0000000000000000e+00  0.0000000000000000e+00 0.0000000000000000e+00 0.0000000000000000e+00  3.7281764222863618e-16 0.0000000000000000e+00 0.0000000000000000e+00  5.1359814303207952e-16 0.0000000000000000e+00 0.0000000000000000e+00  4.1890568156838429e-16 0.0000000000000000e+00 0.0000000000000000e+00  4.4009798014893537e-16 0.0000000000000000e+00 0.0000000000000000e+00  4.4200890802472257e-16 0.0000000000000000e+00 0.0000000000000000e+00  5.3654051673795420e-16 0.0000000000000000e+00 0.0000000000000000e+00  4.3552378686074931e-16 0.0000000000000000e+00 0.0000000000000000e+00  4.7349477375416682e-16 0.0000000000000000e+00 0.0000000000000000e+00  3.9495881470248084e-16 0.0000000000000000e+00 0.0000000000000000e+00  0.0000000000000000e+00 0.0000000000000000e+00 0.0000000000000000e+00  0.0000000000000000e+00 0.0000000000000000e+00 0.0000000000000000e+00  3.2267769205892585e-16 0.0000000000000000e+00 0.0000000000000000e+00  0.0000000000000000e+00 0.0000000000000000e+00 0.0000000000000000e+00  0.0000000000000000e+00 0.0000000000000000e+00 0.0000000000000000e+00  0.0000000000000000e+00 0.0000000000000000e+00 0.0000000000000000e+00  3.0840400411883809e-16 0.0000000000000000e+00 0.0000000000000000e+00  0.0000000000000000e+00 0.0000000000000000e+00 0.0000000000000000e+00  0.0000000000000000e+00 0.0000000000000000e+00 0.0000000000000000e+00  0.0000000000000000e+00 0.0000000000000000e+00 0.0000000000000000e+00  0.0000000000000000e+00 0.0000000000000000e+00 0.0000000000000000e+00  0.0000000000000000e+00 -3.6010012120603555e-16 0.0000000000000000e+00  0.0000000000000000e+00 -3.4517142636002281e-16 0.0000000000000000e+00  5.0823010705349512e-16 0.0000000000000000e+00 0.0000000000000000e+00  3.7240566190392148e-16 0.0000000000000000e+00 0.0000000000000000e+00  5.6126573619958176e-16 0.0000000000000000e+00 0.0000000000000000e+00  4.2377945670544155e-16 0.0000000000000000e+00 0.0000000000000000e+00  4.7859238627221089e-16 0.0000000000000000e+00 0.0000000000000000e+00  5.0468315665458632e-16 0.0000000000000000e+00 0.0000000000000000e+00  7.7870602564790459e-16 0.0000000000000000e+00 0.0000000000000000e+00  6.5061070466095656e-16 0.0000000000000000e+00 0.0000000000000000e+00  8.7080755315373060e-16 0.0000000000000000e+00 0.0000000000000000e+00  8.1713199404247724e-16 0.0000000000000000e+00 0.0000000000000000e+00  3.8357638486291947e-16 0.0000000000000000e+00 0.0000000000000000e+00  3.6883909272171735e-16 0.0000000000000000e+00 0.0000000000000000e+00  4.8145487414450951e-16 0.0000000000000000e+00 0.0000000000000000e+00  3.1802292643798063e-16 0.0000000000000000e+00 0.0000000000000000e+00  4.3404394601009367e-16 0.0000000000000000e+00 0.0000000000000000e+00  4.6230218849230541e-16 0.0000000000000000e+00 0.0000000000000000e+00  6.0233040413440570e-16 0.0000000000000000e+00 0.0000000000000000e+00  0.0000000000000000e+00 0.0000000000000000e+00 0.0000000000000000e+00  0.0000000000000000e+00 -3.0165902470402864e-16 0.0000000000000000e+00  0.0000000000000000e+00 -4.0790463137991754e-16 0.0000000000000000e+00  0.0000000000000000e+00 -4.6518070365272267e-16 0.0000000000000000e+00  0.0000000000000000e+00 -3.0096549927301972e-16 0.0000000000000000e+00  5.2149608172054509e-16 0.0000000000000000e+00 0.0000000000000000e+00  7.5594763364040367e-16 0.0000000000000000e+00 0.0000000000000000e+00  7.8392270759970653e-16 0.0000000000000000e+00 0.0000000000000000e+00  8.9039970374945912e-16 0.0000000000000000e+00 0.0000000000000000e+00  8.8469169106771917e-16 0.0000000000000000e+00 0.0000000000000000e+00  8.4240941219251693e-16 0.0000000000000000e+00 0.0000000000000000e+00  8.1773320820228361e-16 0.0000000000000000e+00 0.0000000000000000e+00  8.2518743901456982e-16 0.0000000000000000e+00 0.0000000000000000e+00  6.4492656141499690e-16 0.0000000000000000e+00 0.0000000000000000e+00  6.1234625252692399e-16 0.0000000000000000e+00 0.0000000000000000e+00  4.9519514832952356e-16 0.0000000000000000e+00 0.0000000000000000e+00  3.5387876118664788e-16 0.0000000000000000e+00 0.0000000000000000e+00  4.8010683749745277e-16 0.0000000000000000e+00 0.0000000000000000e+00  6.0246002355227608e-16 0.0000000000000000e+00 0.0000000000000000e+00  7.1509995995506109e-16 0.0000000000000000e+00 0.0000000000000000e+00  8.1667361751704310e-16 0.0000000000000000e+00 0.0000000000000000e+00  0.0000000000000000e+00 0.0000000000000000e+00 0.0000000000000000e+00  0.0000000000000000e+00 -4.0210945426103784e-16 0.0000000000000000e+00  0.0000000000000000e+00 -4.3865579919140360e-16 0.0000000000000000e+00  0.0000000000000000e+00 -4.6212992536488938e-16 0.0000000000000000e+00  0.0000000000000000e+00 -4.7338310567494884e-16 0.0000000000000000e+00  0.0000000000000000e+00 -3.8845466155860281e-16 0.0000000000000000e+00  6.4295964878828309e-16 0.0000000000000000e+00 0.0000000000000000e+00  7.7808780976009200e-16 0.0000000000000000e+00 0.0000000000000000e+00  8.0991014298146247e-16 0.0000000000000000e+00 0.0000000000000000e+00  0.0000000000000000e+00 0.0000000000000000e+00 0.0000000000000000e+00  4.8521936298770432e-16 0.0000000000000000e+00 0.0000000000000000e+00  0.0000000000000000e+00 0.0000000000000000e+00 0.0000000000000000e+00  4.3846982378134907e-16 0.0000000000000000e+00 0.0000000000000000e+00  5.2030524268480964e-16 0.0000000000000000e+00 0.0000000000000000e+00  5.0451500759599291e-16 0.0000000000000000e+00 0.0000000000000000e+00  3.7318607086117167e-16 0.0000000000000000e+00 0.0000000000000000e+00  3.7204440290997720e-16 0.0000000000000000e+00 0.0000000000000000e+00  0.0000000000000000e+00 0.0000000000000000e+00 0.0000000000000000e+00  4.9366871301863357e-16 0.0000000000000000e+00 0.0000000000000000e+00  5.6066973780101803e-16 0.0000000000000000e+00 0.0000000000000000e+00  7.4442554464688857e-16 0.0000000000000000e+00 0.0000000000000000e+00  0.0000000000000000e+00 0.0000000000000000e+00 0.0000000000000000e+00  0.0000000000000000e+00 -4.9189802306946027e-16 0.0000000000000000e+00  0.0000000000000000e+00 -4.9897978442473493e-16 0.0000000000000000e+00  0.0000000000000000e+00 -4.6961639282978506e-16 0.0000000000000000e+00  0.0000000000000000e+00 -4.7314765365339465e-16 0.0000000000000000e+00  0.0000000000000000e+00 -5.2367636780832542e-16 0.0000000000000000e+00  0.0000000000000000e+00 -4.6884907187213060e-16 0.0000000000000000e+00  0.0000000000000000e+00 0.0000000000000000e+00 0.0000000000000000e+00  0.0000000000000000e+00 0.0000000000000000e+00 0.0000000000000000e+00  0.0000000000000000e+00 3.1167268174326344e-16 0.0000000000000000e+00  0.0000000000000000e+00 0.0000000000000000e+00 0.0000000000000000e+00  0.0000000000000000e+00 0.0000000000000000e+00 0.0000000000000000e+00  0.0000000000000000e+00 0.0000000000000000e+00 0.0000000000000000e+00  -3.4683642975996899e-16 0.0000000000000000e+00 0.0000000000000000e+00  0.0000000000000000e+00 0.0000000000000000e+00 0.0000000000000000e+00  0.0000000000000000e+00 0.0000000000000000e+00 0.0000000000000000e+00  -4.1184558875247341e-16 0.0000000000000000e+00 0.0000000000000000e+00  -4.7660379804454634e-16 0.0000000000000000e+00 0.0000000000000000e+00  0.0000000000000000e+00 -3.2686355346904423e-16 0.0000000000000000e+00  0.0000000000000000e+00 -3.2555197910063400e-16 0.0000000000000000e+00  0.0000000000000000e+00 0.0000000000000000e+00 0.0000000000000000e+00  0.0000000000000000e+00 0.0000000000000000e+00 0.0000000000000000e+00  0.0000000000000000e+00 -4.7420879409321631e-16 0.0000000000000000e+00  0.0000000000000000e+00 -5.4834937206750015e-16 0.0000000000000000e+00  0.0000000000000000e+00 -4.9850342085004376e-16 0.0000000000000000e+00  0.0000000000000000e+00 -5.0591852066414911e-16 0.0000000000000000e+00  0.0000000000000000e+00 -4.4039742292366804e-16 0.0000000000000000e+00  0.0000000000000000e+00 -4.0970233981348361e-16 0.0000000000000000e+00  0.0000000000000000e+00 0.0000000000000000e+00 0.0000000000000000e+00  0.0000000000000000e+00 0.0000000000000000e+00 0.0000000000000000e+00  -5.1172424337426879e-16 4.8722029044989694e-16 0.0000000000000000e+00  -8.1768336872958319e-16 3.6028438224133050e-16 0.0000000000000000e+00  -1.1370834551654457e-15 0.0000000000000000e+00 0.0000000000000000e+00  -1.3439487362694307e-15 0.0000000000000000e+00 0.0000000000000000e+00  -1.5789493780395724e-15 3.0633872389857653e-16 0.0000000000000000e+00  -1.2954427515649293e-15 3.3244615441431220e-16 0.0000000000000000e+00  -1.5310239700819154e-15 3.5146368266806817e-16 0.0000000000000000e+00  -1.2326924787403862e-15 0.0000000000000000e+00 0.0000000000000000e+00  -9.6911054013082724e-16 0.0000000000000000e+00 0.0000000000000000e+00  -7.6242392871085796e-16 -4.1794000077046437e-16 0.0000000000000000e+00  -7.1828486828693788e-16 -4.6363091271693175e-16 0.0000000000000000e+00  -3.2370489254342243e-16 -4.2585645544582344e-16 0.0000000000000000e+00  0.0000000000000000e+00 0.0000000000000000e+00 0.0000000000000000e+00  0.0000000000000000e+00 -3.6312076333863678e-16 0.0000000000000000e+00  0.0000000000000000e+00 -6.4216177202082976e-16 0.0000000000000000e+00  0.0000000000000000e+00 -5.9979266483212857e-16 0.0000000000000000e+00  0.0000000000000000e+00 -5.4380693197805532e-16 0.0000000000000000e+00  0.0000000000000000e+00 -3.5488525952181623e-16 0.0000000000000000e+00  -3.8398162557938060e-16 0.0000000000000000e+00 0.0000000000000000e+00  -4.9670609129453855e-16 0.0000000000000000e+00 0.0000000000000000e+00  -8.4841055168458013e-16 3.3680421461239852e-16 0.0000000000000000e+00  -9.1655172906598234e-16 5.7426724771076062e-16 0.0000000000000000e+00  -1.1759518083271437e-15 6.6346988117414879e-16 0.0000000000000000e+00  -1.4053372720907667e-15 4.1392437945220461e-16 0.0000000000000000e+00  -1.9780552773688745e-15 3.2720043843551896e-16 0.0000000000000000e+00  -1.7322865991038266e-15 3.3914354083616582e-16 0.0000000000000000e+00  -1.6746198087378518e-15 0.0000000000000000e+00 0.0000000000000000e+00  -1.4683279433069313e-15 0.0000000000000000e+00 0.0000000000000000e+00  -1.2782318334809252e-15 0.0000000000000000e+00 0.0000000000000000e+00  -9.6468488440823287e-16 0.0000000000000000e+00 0.0000000000000000e+00  -1.3284907953455839e-15 -5.4388343999792889e-16 0.0000000000000000e+00  -7.5549635024695381e-16 -6.5594453732388654e-16 0.0000000000000000e+00  -5.4762869926096209e-16 -6.6650898765026237e-16 0.0000000000000000e+00  0.0000000000000000e+00 0.0000000000000000e+00 0.0000000000000000e+00  0.0000000000000000e+00 -3.4240406706243090e-16 0.0000000000000000e+00  0.0000000000000000e+00 -5.9611066558227018e-16 0.0000000000000000e+00  0.0000000000000000e+00 -5.5831116858727316e-16 0.0000000000000000e+00  -6.0136343670992548e-16 -5.3420430616668711e-16 0.0000000000000000e+00  -5.7298318106198596e-16 0.0000000000000000e+00 0.0000000000000000e+00  -6.8142841794624727e-16 0.0000000000000000e+00 0.0000000000000000e+00  -9.3216176032648983e-16 3.4159223278501100e-16 0.0000000000000000e+00  -1.2930031914372077e-15 5.4807544830517086e-16 0.0000000000000000e+00  -1.7236711704420217e-15 6.6152897175543384e-16 0.0000000000000000e+00  -1.8044784742896607e-15 7.1212374234961564e-16 0.0000000000000000e+00  -1.7571528033298565e-15 7.1788389171103943e-16 0.0000000000000000e+00  -2.3025649871887876e-15 5.1042834147145475e-16 0.0000000000000000e+00  -2.0748004966993804e-15 0.0000000000000000e+00 0.0000000000000000e+00  -1.6932502982874914e-15 0.0000000000000000e+00 0.0000000000000000e+00  -1.2517729637956856e-15 0.0000000000000000e+00 0.0000000000000000e+00  -8.1645949088152825e-16 0.0000000000000000e+00 0.0000000000000000e+00  -1.0620095151474826e-15 0.0000000000000000e+00 0.0000000000000000e+00  -1.3593796585582369e-15 -4.9697986010598136e-16 0.0000000000000000e+00  -1.5995948957058265e-15 -6.7757030595072099e-16 0.0000000000000000e+00  -1.5705541509703840e-15 -7.6655658324206173e-16 0.0000000000000000e+00  0.0000000000000000e+00 0.0000000000000000e+00 0.0000000000000000e+00  0.0000000000000000e+00 0.0000000000000000e+00 0.0000000000000000e+00  -4.2466724551040140e-16 -4.2471467331585775e-16 0.0000000000000000e+00  -9.0206956895663261e-16 -3.9846920725625193e-16 0.0000000000000000e+00  -4.4167536348143271e-16 -4.1366558426906656e-16 0.0000000000000000e+00  -1.0237410293903929e-15 0.0000000000000000e+00 0.0000000000000000e+00  -9.5738802787815361e-16 3.0887201488237508e-16 0.0000000000000000e+00  -1.2691707237541208e-15 6.3662643782277901e-16 0.0000000000000000e+00  -1.6465645441541234e-15 8.3905325817920549e-16 0.0000000000000000e+00  -1.9849884778161741e-15 7.8991779070826745e-16 0.0000000000000000e+00  -1.9845399489254012e-15 7.4732562711325764e-16 0.0000000000000000e+00  -2.1039664290687489e-15 7.6719877982288923e-16 0.0000000000000000e+00  -1.7735593884071300e-15 4.7643578302839301e-16 0.0000000000000000e+00  -1.5079214083603388e-15 0.0000000000000000e+00 0.0000000000000000e+00  -2.1390442205525751e-15 0.0000000000000000e+00 0.0000000000000000e+00  -1.8789889875104618e-15 0.0000000000000000e+00 0.0000000000000000e+00  -1.4772962065507578e-15 0.0000000000000000e+00 0.0000000000000000e+00  -1.1771143944809681e-15 0.0000000000000000e+00 0.0000000000000000e+00  -1.2072925996011725e-15 -3.5169432265630935e-16 0.0000000000000000e+00  -1.0489220096868610e-15 -4.7177913715747758e-16 0.0000000000000000e+00  -1.6173320564191923e-15 -5.1415794843264188e-16 0.0000000000000000e+00  0.0000000000000000e+00 0.0000000000000000e+00 0.0000000000000000e+00  0.0000000000000000e+00 0.0000000000000000e+00 0.0000000000000000e+00  0.0000000000000000e+00 0.0000000000000000e+00 0.0000000000000000e+00  0.0000000000000000e+00 -3.6322949239698919e-16 0.0000000000000000e+00  -6.5526642241047854e-16 0.0000000000000000e+00 0.0000000000000000e+00  -9.0556072407285092e-16 0.0000000000000000e+00 0.0000000000000000e+00  -1.3084008620679105e-15 5.3406060568887341e-16 0.0000000000000000e+00  -1.5769063950447038e-15 8.3957332872954123e-16 0.0000000000000000e+00  -1.5384385468894728e-15 1.0893259801007910e-15 0.0000000000000000e+00  -1.4024188558835889e-15 9.3318729570103858e-16 0.0000000000000000e+00  -2.0688570034501293e-15 8.4257431485203426e-16 0.0000000000000000e+00  -1.7182115127190794e-15 7.3105800516190094e-16 0.0000000000000000e+00  -1.9043111847172255e-15 3.7571520860684950e-16 0.0000000000000000e+00  -1.8949255572713978e-15 0.0000000000000000e+00 0.0000000000000000e+00  -1.7844173290328983e-15 0.0000000000000000e+00 0.0000000000000000e+00  -1.4283439209042043e-15 -4.2431409905640998e-16 0.0000000000000000e+00  -1.8008652656876706e-15 -4.7147026515061593e-16 0.0000000000000000e+00  -1.2868171885648261e-15 -5.5901256235887399e-16 0.0000000000000000e+00  -8.1529841218302410e-16 -5.8336404479593365e-16 0.0000000000000000e+00  -6.5725877729090618e-16 -5.5780200344200548e-16 0.0000000000000000e+00  0.0000000000000000e+00 -5.7363633989005908e-16 0.0000000000000000e+00  0.0000000000000000e+00 0.0000000000000000e+00 0.0000000000000000e+00  0.0000000000000000e+00 0.0000000000000000e+00 0.0000000000000000e+00  -4.8638440903455457e-16 0.0000000000000000e+00 0.0000000000000000e+00  -5.1983502023090885e-16 0.0000000000000000e+00 0.0000000000000000e+00  -1.0897908804135682e-15 0.0000000000000000e+00 0.0000000000000000e+00  -1.3929890743025840e-15 5.3753719618470398e-16 0.0000000000000000e+00  -1.8286820474879352e-15 7.1262023616778688e-16 0.0000000000000000e+00  -1.9651837883867572e-15 9.9444844566575256e-16 0.0000000000000000e+00  -2.0660527656676868e-15 9.7425124361828190e-16 0.0000000000000000e+00  -1.7816986964