<?xml version="1.0"?>
<VTKFile type="UnstructuredGrid"  version="0.1"  >
<UnstructuredGrid>
<Piece  NumberOfPoints="441" NumberOfCells="800">
<Points>
<DataArray  type="Float64"  NumberOfComponents="3"  format="ascii">0 0 0  0.05 0 0  0.1 0 0  0.15 0 0  0.2 0 0  0.25 0 0  0.3 0 0  0.35 0 0  0.4 0 0  0.45 0 0  0.5 0 0  0.55 0 0  0.6 0 0  0.65 0 0  0.7 0 0  0.75 0 0  0.8 0 0  0.85 0 0  0.9 0 0  0.95 0 0  1 0 0  0 0.05 0  0.05 0.05 0  0.1 0.05 0  0.15 0.05 0  0.2 0.05 0  0.25 0.05 0  0.3 0.05 0  0.35 0.05 0  0.4 0.05 0  0.45 0.05 0  0.5 0.05 0  0.55 0.05 0  0.6 0.05 0  0.65 0.05 0  0.7 0.05 0  0.75 0.05 0  0.8 0.05 0  0.85 0.05 0  0.9 0.05 0  0.95 0.05 0  1 0.05 0  0 0.1 0  0.05 0.1 0  0.1 0.1 0  0.15 0.1 0  0.2 0.1 0  0.25 0.1 0  0.3 0.1 0  0.35 0.1 0  0.4 0.1 0  0.45 0.1 0  0.5 0.1 0  0.55 0.1 0  0.6 0.1 0  0.65 0.1 0  0.7 0.1 0  0.75 0.1 0  0.8 0.1 0  0.85 0.1 0  0.9 0.1 0  0.95 0.1 0  1 0.1 0  0 0.15 0  0.05 0.15 0  0.1 0.15 0  0.15 0.15 0  0.2 0.15 0  0.25 0.15 0  0.3 0.15 0  0.35 0.15 0  0.4 0.15 0  0.45 0.15 0  0.5 0.15 0  0.55 0.15 0  0.6 0.15 0  0.65 0.15 0  0.7 0.15 0  0.75 0.15 0  0.8 0.15 0  0.85 0.15 0  0.9 0.15 0  0.95 0.15 0  1 0.15 0  0 0.2 0  0.05 0.2 0  0.1 0.2 0  0.15 0.2 0  0.2 0.2 0  0.25 0.2 0  0.3 0.2 0  0.35 0.2 0  0.4 0.2 0  0.45 0.2 0  0.5 0.2 0  0.55 0.2 0  0.6 0.2 0  0.65 0.2 0  0.7 0.2 0  0.75 0.2 0  0.8 0.2 0  0.85 0.2 0  0.9 0.2 0  0.95 0.2 0  1 0.2 0  0 0.25 0  0.05 0.25 0  0.1 0.25 0  0.15 0.25 0  0.2 0.25 0  0.25 0.25 0  0.3 0.25 0  0.35 0.25 0  0.4 0.25 0  0.45 0.25 0  0.5 0.25 0  0.55 0.25 0  0.6 0.25 0  0.65 0.25 0  0.7 0.25 0  0.75 0.25 0  0.8 0.25 0  0.85 0.25 0  0.9 0.25 0  0.95 0.25 0  1 0.25 0  0 0.3 0  0.05 0.3 0  0.1 0.3 0  0.15 0.3 0  0.2 0.3 0  0.25 0.3 0  0.3 0.3 0  0.35 0.3 0  0.4 0.3 0  0.45 0.3 0  0.5 0.3 0  0.55 0.3 0  0.6 0.3 0  0.65 0.3 0  0.7 0.3 0  0.75 0.3 0  0.8 0.3 0  0.85 0.3 0  0.9 0.3 0  0.95 0.3 0  1 0.3 0  0 0.35 0  0.05 0.35 0  0.1 0.35 0  0.15 0.35 0  0.2 0.35 0  0.25 0.35 0  0.3 0.35 0  0.35 0.35 0  0.4 0.35 0  0.45 0.35 0  0.5 0.35 0  0.55 0.35 0  0.6 0.35 0  0.65 0.35 0  0.7 0.35 0  0.75 0.35 0  0.8 0.35 0  0.85 0.35 0  0.9 0.35 0  0.95 0.35 0  1 0.35 0  0 0.4 0  0.05 0.4 0  0.1 0.4 0  0.15 0.4 0  0.2 0.4 0  0.25 0.4 0  0.3 0.4 0  0.35 0.4 0  0.4 0.4 0  0.45 0.4 0  0.5 0.4 0  0.55 0.4 0  0.6 0.4 0  0.65 0.4 0  0.7 0.4 0  0.75 0.4 0  0.8 0.4 0  0.85 0.4 0  0.9 0.4 0  0.95 0.4 0  1 0.4 0  0 0.45 0  0.05 0.45 0  0.1 0.45 0  0.15 0.45 0  0.2 0.45 0  0.25 0.45 0  0.3 0.45 0  0.35 0.45 0  0.4 0.45 0  0.45 0.45 0  0.5 0.45 0  0.55 0.45 0  0.6 0.45 0  0.65 0.45 0  0.7 0.45 0  0.75 0.45 0  0.8 0.45 0  0.85 0.45 0  0.9 0.45 0  0.95 0.45 0  1 0.45 0  0 0.5 0  0.05 0.5 0  0.1 0.5 0  0.15 0.5 0  0.2 0.5 0  0.25 0.5 0  0.3 0.5 0  0.35 0.5 0  0.4 0.5 0  0.45 0.5 0  0.5 0.5 0  0.55 0.5 0  0.6 0.5 0  0.65 0.5 0  0.7 0.5 0  0.75 0.5 0  0.8 0.5 0  0.85 0.5 0  0.9 0.5 0  0.95 0.5 0  1 0.5 0  0 0.55 0  0.05 0.55 0  0.1 0.55 0  0.15 0.55 0  0.2 0.55 0  0.25 0.55 0  0.3 0.55 0  0.35 0.55 0  0.4 0.55 0  0.45 0.55 0  0.5 0.55 0  0.55 0.55 0  0.6 0.55 0  0.65 0.55 0  0.7 0.55 0  0.75 0.55 0  0.8 0.55 0  0.85 0.55 0  0.9 0.55 0  0.95 0.55 0  1 0.55 0  0 0.6 0  0.05 0.6 0  0.1 0.6 0  0.15 0.6 0  0.2 0.6 0  0.25 0.6 0  0.3 0.6 0  0.35 0.6 0  0.4 0.6 0  0.45 0.6 0  0.5 0.6 0  0.55 0.6 0  0.6 0.6 0  0.65 0.6 0  0.7 0.6 0  0.75 0.6 0  0.8 0.6 0  0.85 0.6 0  0.9 0.6 0  0.95 0.6 0  1 0.6 0  0 0.65 0  0.05 0.65 0  0.1 0.65 0  0.15 0.65 0  0.2 0.65 0  0.25 0.65 0  0.3 0.65 0  0.35 0.65 0  0.4 0.65 0  0.45 0.65 0  0.5 0.65 0  0.55 0.65 0  0.6 0.65 0  0.65 0.65 0  0.7 0.65 0  0.75 0.65 0  0.8 0.65 0  0.85 0.65 0  0.9 0.65 0  0.95 0.65 0  1 0.65 0  0 0.7 0  0.05 0.7 0  0.1 0.7 0  0.15 0.7 0  0.2 0.7 0  0.25 0.7 0  0.3 0.7 0  0.35 0.7 0  0.4 0.7 0  0.45 0.7 0  0.5 0.7 0  0.55 0.7 0  0.6 0.7 0  0.65 0.7 0  0.7 0.7 0  0.75 0.7 0  0.8 0.7 0  0.85 0.7 0  0.9 0.7 0  0.95 0.7 0  1 0.7 0  0 0.75 0  0.05 0.75 0  0.1 0.75 0  0.15 0.75 0  0.2 0.75 0  0.25 0.75 0  0.3 0.75 0  0.35 0.75 0  0.4 0.75 0  0.45 0.75 0  0.5 0.75 0  0.55 0.75 0  0.6 0.75 0  0.65 0.75 0  0.7 0.75 0  0.75 0.75 0  0.8 0.75 0  0.85 0.75 0  0.9 0.75 0  0.95 0.75 0  1 0.75 0  0 0.8 0  0.05 0.8 0  0.1 0.8 0  0.15 0.8 0  0.2 0.8 0  0.25 0.8 0  0.3 0.8 0  0.35 0.8 0  0.4 0.8 0  0.45 0.8 0  0.5 0.8 0  0.55 0.8 0  0.6 0.8 0  0.65 0.8 0  0.7 0.8 0  0.75 0.8 0  0.8 0.8 0  0.85 0.8 0  0.9 0.8 0  0.95 0.8 0  1 0.8 0  0 0.85 0  0.05 0.85 0  0.1 0.85 0  0.15 0.85 0  0.2 0.85 0  0.25 0.85 0  0.3 0.85 0  0.35 0.85 0  0.4 0.85 0  0.45 0.85 0  0.5 0.85 0  0.55 0.85 0  0.6 0.85 0  0.65 0.85 0  0.7 0.85 0  0.75 0.85 0  0.8 0.85 0  0.85 0.85 0  0.9 0.85 0  0.95 0.85 0  1 0.85 0  0 0.9 0  0.05 0.9 0  0.1 0.9 0  0.15 0.9 0  0.2 0.9 0  0.25 0.9 0  0.3 0.9 0  0.35 0.9 0  0.4 0.9 0  0.45 0.9 0  0.5 0.9 0  0.55 0.9 0  0.6 0.9 0  0.65 0.9 0  0.7 0.9 0  0.75 0.9 0  0.8 0.9 0  0.85 0.9 0  0.9 0.9 0  0.95 0.9 0  1 0.9 0  0 0.95 0  0.05 0.95 0  0.1 0.95 0  0.15 0.95 0  0.2 0.95 0  0.25 0.95 0  0.3 0.95 0  0.35 0.95 0  0.4 0.95 0  0.45 0.95 0  0.5 0.95 0  0.55 0.95 0  0.6 0.95 0  0.65 0.95 0  0.7 0.95 0  0.75 0.95 0  0.8 0.95 0  0.85 0.95 0  0.9 0.95 0  0.95 0.95 0  1 0.95 0  0 1 0  0.05 1 0  0.1 1 0  0.15 1 0  0.2 1 0  0.25 1 0  0.3 1 0  0.35 1 0  0.4 1 0  0.45 1 0  0.5 1 0  0.55 1 0  0.6 1 0  0.65 1 0  0.7 1 0  0.75 1 0  0.8 1 0  0.85 1 0  0.9 1 0  0.95 1 0  1 1 0  </DataArray>
</Points>
<Cells>
[...]
<PointData  Scalars="u"> 
<DataArray  type="Float64"  Name="u"  format="ascii">-1.7398053206535910e-01  1.8967338327700616e+00  2.8225558871216840e+00  3.2578019056685865e+00  3.3473159871110476e+00  3.1310402854514412e+00  2.7502215701384958e+00  2.4733025932349104e+00  2.4332121673144740e+00  2.4883489885297663e+00  2.4316563350834826e+00  2.1601626708747093e+00  1.5135830412929887e+00  3.3022312036678070e-01  -1.0091252304095661e+00  -1.7768070769324038e+00  -1.8264265802234967e+00  -1.3554743391517494e+00  -8.6122257042039707e-01  4.3035178859933343e-01  8.1952483185009761e-01  1.5132791316521175e+00  1.9729419649238225e+00  2.7715296633072932e+00  3.1016560759318486e+00  3.1371381172997852e+00  2.9426968933987712e+00  2.6525706473963595e+00  2.4412146541610968e+00  2.3789030888317542e+00  2.3599520968361714e+00  2.2309860116093980e+00  1.9064781976534921e+00  1.3136949271889315e+00  4.3128601732346089e-01  -5.5241750696581660e-01  -1.2918304844699102e+00  -1.5443394028794033e+00  -1.3172328472824426e+00  -8.2952309017952253e-01  3.5849447943050561e-02  4.2859126925113256e-01  1.8152944222018768e+00  2.1225806925748607e+00  2.8147455532463903e+00  2.9964840049472450e+00  2.9917724381340354e+00  2.8079156356370252e+00  2.5565892155034859e+00  2.3653771988133032e+00  2.2834843356640491e+00  2.2228262175021434e+00  2.0581512299139351e+00  1.7343786617717978e+00  1.2234513472550228e+00  5.1329365367293245e-01  -2.9240494740213868e-01  -9.5982811084480724e-01  -1.2788118178263825e+00  -1.1774547354175424e+00  -8.1994389393111788e-01  -8.3252147387683509e-02  5.0287167815338463e-01  1.9445066235809856e+00  2.2543802035458467e+00  2.7864019713227028e+00  2.8930783435018865e+00  2.8687927526971841e+00  2.6881970602515728e+00  2.4563550857538865e+00  2.2738039348815851e+00  2.1783061571428517e+00  2.0928060540146980e+00  1.9155437996496143e+00  1.6115871099640018e+00  1.1657049611818830e+00  5.6345748188321443e-01  -1.2119822106553127e-01  -7.1021457357255491e-01  -1.0380633536486756e+00  -1.0176782471888595e+00  -7.5902897410170433e-01  -9.5064444150299771e-02  4.2661281213586860e-01  2.0007711227406748e+00  2.2807268029541290e+00  2.7229061989768564e+00  2.7972133793376392e+00  2.7526301895127356e+00  2.5746090850525922e+00  2.3562896173086383e+00  2.1790295602232628e+00  2.0739591589283668e+00  1.9743082364465463e+00  1.7965550676719406e+00  1.5161385640468297e+00  1.1222481522961274e+00  5.9980203270765109e-01  4.8302711862103775e-03  -5.1936261804752637e-01  -8.3564606503680894e-01  -8.6085574365247175e-01  -6.7406182900499123e-01  -1.0328602246731752e-01  3.4446235408331743e-01  2.0143476859643066e+00  2.2684090180249474e+00  2.6469452559840061e+00  2.6937687261227437e+00  2.6356544329181868e+00  2.4643030426615535e+00  2.2579384225202319e+00  2.0860917690390677e+00  1.9752670570464030e+00  1.8679670613459911e+00  1.6947360520066821e+00  1.4368554178686377e+00  1.0854498128306282e+00  6.2561239881079833e-01  1.0204053032059264e-01  -3.6560200668522336e-01  -6.6240920998424790e-01  -7.1502628647913502e-01  -5.8456168699282973e-01  -1.0457849809349791e-01  2.6906589810896703e-01  2.0124888520099691e+00  2.2363718993130042e+00  2.5583880221595781e+00  2.5855787519628888e+00  2.5209322191940235e+00  2.3574149609698907e+00  2.1628648729104127e+00  1.9975334546029571e+00  1.8837011345535639e+00  1.7723807788595425e+00  1.6055019667338248e+00  1.3680339847656708e+00  1.0522313088598712e+00  6.4426315484963803e-01  1.8087576320151169e-01  -2.3712290016200863e-01  -5.1287366100302090e-01  -5.8299884998923801e-01  -4.9671481318228200e-01  -1.0148408647090880e-01  2.0165260696751827e-01  2.0033602487048174e+00  2.1949162866532190e+00  2.4657710690571002e+00  2.4778801703394056e+00  2.4092472708847459e+00  2.2543563837731586e+00  2.0722525801560354e+00  1.9142971723963984e+00  1.7993315057863395e+00  1.6861042858708200e+00  1.5260374556800824e+00  1.3067443709074442e+00  1.0214456774006058e+00  6.5787537717914457e-01  2.4663330361575395e-01  -1.2724158023262808e-01  -3.8204601226837220e-01  -4.6392268426151534e-01  -4.1332044286761355e-01  -9.5304178304682782e-02  1.4416960703358245e-01  1.9917591823725671e+00  2.1505382381730258e+00  2.3738426987186356e+00  2.3731082076243677e+00  2.3021426316602844e+00  2.1565433005724564e+00  1.9869537755436337e+00  1.8367420356117479e+00  1.7219023350594389e+00  1.6080006350599394e+00  1.4546062619560329e+00  1.2514567643002745e+00  9.9272002366585432e-01  6.6789264612802701e-01  3.0258848178813658e-01  -3.1754547793445331e-02  -2.6657652141230981e-01  -3.5672499931246998e-01  -3.3550592806432300e-01  -8.6794957679438317e-02  9.5858783142879836e-02  1.9802111238307865e+00  2.1067211627130935e+00  2.2856843371683087e+00  2.2736111413894333e+00  2.2012713335885823e+00  2.0649357778860113e+00  1.9074606473971376e+00  1.7650467681721722e+00  1.6511197727587015e+00  1.5372658480338373e+00  1.3901711516853452e+00  1.2013788347421126e+00  9.6599666109449844e-01  6.7532039228509699e-01  3.5078725891766099e-01  5.1931452612478175e-02  -1.6421244712027994e-01  -2.6033110742457855e-01  -2.6366821324655554e-01  -7.6722818701242132e-02  5.5535819157606657e-02  1.9699401505925846e+00  2.0654776395976806e+00  2.2033125529212576e+00  2.1809785266950383e+00  2.1077254235502645e+00  1.9802438947820682e+00  1.8342041176842987e+00  1.6993349489502076e+00  1.5867558412399825e+00  1.4733771055126230e+00  1.3321161980806819e+00  1.1560935292108017e+00  9.4133219203457086e-01  6.8086625373802312e-01  3.9257085897338978e-01  1.2551498060493230e-01  -7.3419624825596053e-02  -1.7392172520997412e-01  -1.9799066033981347e-01  -6.5770267413291242e-02  2.1970970489766272e-02  1.9614647359234800e+00  2.0279038260978250e+00  2.1279356570912817e+00  2.0962434394859710e+00  2.0222848428371343e+00  1.9030028922182369e+00  1.7674912123974376e+00  1.6396905294364170e+00  1.5286673825627910e+00  1.4160060221267892e+00  1.2800728452807895e+00  1.1153799829430109e+00  9.1881541974639824e-01  6.8503435316340189e-01  4.2884921327338849e-01  1.9013931865870523e-01  6.8537199682134975e-03  -9.6895223046013820e-02  -1.3855949813573562e-01  -5.4523167123866678e-02  -5.9301530437325502e-03  1.9548757762159761e+00  1.9945269709320583e+00  2.0602380557525142e+00  2.0200418304117069e+00  1.9454491808839198e+00  1.8335631809000161e+00  1.7075382522611280e+00  1.5861922627298852e+00  1.4767756928489948e+00  1.3649481301342223e+00  1.2338178934928870e+00  1.0791184231218265e+00  8.9853196684982228e-01  6.8818665427297965e-01  4.6025822221583601e-01  2.4660183892166893e-01  7.7351525935574358e-02  -2.8811430081966384e-02  -8.5423898760359551e-02  -4.3470533742854270e-02  -2.9074957664333451e-02  1.9500219599480586e+00  1.9655274595437708e+00  2.0005582090342502e+00  1.9527255224645750e+00  1.8775131911376512e+00  1.7721469671239696e+00  1.6544967101930110e+00  1.5389054791765990e+00  1.4310384936914484e+00  1.3200756492805490e+00  1.1932120626290574e+00  1.0472398311845077e+00  8.8055223748225198e-01  6.9058496642167988e-01  4.8725401776570054e-01  2.9547653050388351e-01  1.3861525764728919e-01  3.0657318439327449e-02  -3.8610085078614631e-02  -3.3007568056105045e-02  -4.8193183631929537e-02  1.9466281068029563e+00  1.9408804035730660e+00  1.9490148982113671e+00  1.8944576838454732e+00  1.8186305418915483e+00  1.7188819202691419e+00  1.6084640192238822e+00  1.4978795147105537e+00  1.3914339865983016e+00  1.2813063677404091e+00  1.1581637188554448e+00  1.0197001982320337e+00  8.6492908844155458e-01  6.9241952777468119e-01  5.1017079431403745e-01  3.3718806114195721e-01  1.9105071752627520e-01  8.1762425241074271e-02  1.8726892796950979e-03  -2.3447452893541169e-02  -6.3863668596383968e-02  1.9443718384223716e+00  1.9204503625938512e+00  1.9055960531941605e+00  1.8452824597197732e+00  1.7688617376134035e+00  1.6738303411009052e+00  1.5694976010131554e+00  1.4631482400799121e+00  1.3579492151822563e+00  1.2485841235896604e+00  1.1286088109682053e+00  9.9646792884246460e-01  8.5169962008520272e-01  6.9382893993186889e-01  5.2925715374338467e-01  3.7205679079472220e-01  2.3496846261007229e-01  1.2470131733005804e-01  3.6027845101614116e-02  -1.5034035723203550e-02  -7.6541046470299870e-02  1.9429326769728137e+00  1.9040537079034210e+00  1.8702200026314448e+00  1.8051750750867499e+00  1.7282105434851580e+00  1.6370122855698259e+00  1.5376261344304580e+00  1.4347314684297530e+00  1.3305738362139385e+00  1.2218678070340725e+00  1.1044995770240211e+00  9.7751747099599573e-01  8.4088790846771688e-01  6.9491375702849123e-01  5.4469898542111372e-01  4.0032672085762860e-01  2.7060926237581345e-01  1.5963197470678969e-01  6.3868139729617482e-02  -7.9537612765821584e-03  -8.6578687995950684e-02  1.9420159315750387e+00  1.8915021039120394e+00  1.8427774606573994e+00  1.7740783377363896e+00  1.6966514034451314e+00  1.6084234320787829e+00  1.5128595524479014e+00  1.4126386767952850e+00  1.3092986544868295e+00  1.2011268136059203e+00  1.0858004505328920e+00  9.6282895021384485e-01  8.3251025956949953e-01  6.9574740420327819e-01  5.5663512025141271e-01  4.2218300070482662e-01  2.9815656556173575e-01  1.8667645558227219e-01  8.5407246761852587e-02  -2.3474289698066312e-03  -9.4246007255170627e-02  1.9414142309686928e+00  1.8826235860394063e+00  1.8231578064859701e+00  1.7519260580336733e+00  1.6741458115961154e+00  1.5880469622326407e+00  1.4951971065979746e+00  1.3968717643642452e+00  1.2941132264903745e+00  1.1863353208896725e+00  1.0724812049143360e+00  9.5238172000943799e-01  8.2657107318238843e-01  6.9637637507087224e-01  5.6516365650801892e-01  4.3776013987010964e-01  3.1774805305083931e-01  2.0593728672479555e-01  1.0067001859784670e-01  1.6936972451189075e-03  -9.9740409096435126e-02  1.9408353880740628e+00  1.8772588627485327e+00  1.8112745631521110e+00  1.7386678916747362e+00  1.6606641698945384e+00  1.5758736866013590e+00  1.4846356600475659e+00  1.3874304111517626e+00  1.2850120185747993e+00  1.1774819660560245e+00  1.0645302234958283e+00  9.4617422236098148e-01  8.2309003174817696e-01  6.9685098342219076e-01  5.7036820005970690e-01  4.4715590791016629e-01  3.2948538446769704e-01  2.1746561705626635e-01  1.0963848974853560e-01  4.0668368378879620e-03  -1.0321079843377730e-01  1.9403161271508385e+00  1.8754161776147926e+00  1.8071337761087580e+00  1.7342356873393221e+00  1.6561892322680738e+00  1.5718542987547721e+00  1.4811595420752433e+00  1.3843054039334739e+00  1.2819846782029263e+00  1.1745394680860661e+00  1.0619104576367608e+00  9.4416389249578636e-01  8.2202060497862639e-01  6.9713140346395164e-01  5.7223126981327543e-01  4.5038055649973469e-01  3.3342422100031255e-01  2.2127751556595693e-01  1.1245767443968446e-01  4.7890103290668604e-03  -1.0458253159149800e-01  </DataArray> 
</PointData> 
</Piece>
</UnstructuredGrid>
</VTKFile>