<?xml version="1.0"?>
<VTKFile type="UnstructuredGrid"  version="0.1"  >
<UnstructuredGrid>
<Piece  NumberOfPoints="441" NumberOfCells="800">
<Points>
<DataArray  type="Float64"  NumberOfComponents="3"  format="ascii">0 0 0  0.05 0 0  0.1 0 0  0.15 0 0  0.2 0 0  0.25 0 0  0.3 0 0  0.35 0 0  0.4 0 0  0.45 0 0  0.5 0 0  0.55 0 0  0.6 0 0  0.65 0 0  0.7 0 0  0.75 0 0  0.8 0 0  0.85 0 0  0.9 0 0  0.95 0 0  1 0 0  0 0.05 0  0.05 0.05 0  0.1 0.05 0  0.15 0.05 0  0.2 0.05 0  0.25 0.05 0  0.3 0.05 0  0.35 0.05 0  0.4 0.05 0  0.45 0.05 0  0.5 0.05 0  0.55 0.05 0  0.6 0.05 0  0.65 0.05 0  0.7 0.05 0  0.75 0.05 0  0.8 0.05 0  0.85 0.05 0  0.9 0.05 0  0.95 0.05 0  1 0.05 0  0 0.1 0  0.05 0.1 0  0.1 0.1 0  0.15 0.1 0  0.2 0.1 0  0.25 0.1 0  0.3 0.1 0  0.35 0.1 0  0.4 0.1 0  0.45 0.1 0  0.5 0.1 0  0.55 0.1 0  0.6 0.1 0  0.65 0.1 0  0.7 0.1 0  0.75 0.1 0  0.8 0.1 0  0.85 0.1 0  0.9 0.1 0  0.95 0.1 0  1 0.1 0  0 0.15 0  0.05 0.15 0  0.1 0.15 0  0.15 0.15 0  0.2 0.15 0  0.25 0.15 0  0.3 0.15 0  0.35 0.15 0  0.4 0.15 0  0.45 0.15 0  0.5 0.15 0  0.55 0.15 0  0.6 0.15 0  0.65 0.15 0  0.7 0.15 0  0.75 0.15 0  0.8 0.15 0  0.85 0.15 0  0.9 0.15 0  0.95 0.15 0  1 0.15 0  0 0.2 0  0.05 0.2 0  0.1 0.2 0  0.15 0.2 0  0.2 0.2 0  0.25 0.2 0  0.3 0.2 0  0.35 0.2 0  0.4 0.2 0  0.45 0.2 0  0.5 0.2 0  0.55 0.2 0  0.6 0.2 0  0.65 0.2 0  0.7 0.2 0  0.75 0.2 0  0.8 0.2 0  0.85 0.2 0  0.9 0.2 0  0.95 0.2 0  1 0.2 0  0 0.25 0  0.05 0.25 0  0.1 0.25 0  0.15 0.25 0  0.2 0.25 0  0.25 0.25 0  0.3 0.25 0  0.35 0.25 0  0.4 0.25 0  0.45 0.25 0  0.5 0.25 0  0.55 0.25 0  0.6 0.25 0  0.65 0.25 0  0.7 0.25 0  0.75 0.25 0  0.8 0.25 0  0.85 0.25 0  0.9 0.25 0  0.95 0.25 0  1 0.25 0  0 0.3 0  0.05 0.3 0  0.1 0.3 0  0.15 0.3 0  0.2 0.3 0  0.25 0.3 0  0.3 0.3 0  0.35 0.3 0  0.4 0.3 0  0.45 0.3 0  0.5 0.3 0  0.55 0.3 0  0.6 0.3 0  0.65 0.3 0  0.7 0.3 0  0.75 0.3 0  0.8 0.3 0  0.85 0.3 0  0.9 0.3 0  0.95 0.3 0  1 0.3 0  0 0.35 0  0.05 0.35 0  0.1 0.35 0  0.15 0.35 0  0.2 0.35 0  0.25 0.35 0  0.3 0.35 0  0.35 0.35 0  0.4 0.35 0  0.45 0.35 0  0.5 0.35 0  0.55 0.35 0  0.6 0.35 0  0.65 0.35 0  0.7 0.35 0  0.75 0.35 0  0.8 0.35 0  0.85 0.35 0  0.9 0.35 0  0.95 0.35 0  1 0.35 0  0 0.4 0  0.05 0.4 0  0.1 0.4 0  0.15 0.4 0  0.2 0.4 0  0.25 0.4 0  0.3 0.4 0  0.35 0.4 0  0.4 0.4 0  0.45 0.4 0  0.5 0.4 0  0.55 0.4 0  0.6 0.4 0  0.65 0.4 0  0.7 0.4 0  0.75 0.4 0  0.8 0.4 0  0.85 0.4 0  0.9 0.4 0  0.95 0.4 0  1 0.4 0  0 0.45 0  0.05 0.45 0  0.1 0.45 0  0.15 0.45 0  0.2 0.45 0  0.25 0.45 0  0.3 0.45 0  0.35 0.45 0  0.4 0.45 0  0.45 0.45 0  0.5 0.45 0  0.55 0.45 0  0.6 0.45 0  0.65 0.45 0  0.7 0.45 0  0.75 0.45 0  0.8 0.45 0  0.85 0.45 0  0.9 0.45 0  0.95 0.45 0  1 0.45 0  0 0.5 0  0.05 0.5 0  0.1 0.5 0  0.15 0.5 0  0.2 0.5 0  0.25 0.5 0  0.3 0.5 0  0.35 0.5 0  0.4 0.5 0  0.45 0.5 0  0.5 0.5 0  0.55 0.5 0  0.6 0.5 0  0.65 0.5 0  0.7 0.5 0  0.75 0.5 0  0.8 0.5 0  0.85 0.5 0  0.9 0.5 0  0.95 0.5 0  1 0.5 0  0 0.55 0  0.05 0.55 0  0.1 0.55 0  0.15 0.55 0  0.2 0.55 0  0.25 0.55 0  0.3 0.55 0  0.35 0.55 0  0.4 0.55 0  0.45 0.55 0  0.5 0.55 0  0.55 0.55 0  0.6 0.55 0  0.65 0.55 0  0.7 0.55 0  0.75 0.55 0  0.8 0.55 0  0.85 0.55 0  0.9 0.55 0  0.95 0.55 0  1 0.55 0  0 0.6 0  0.05 0.6 0  0.1 0.6 0  0.15 0.6 0  0.2 0.6 0  0.25 0.6 0  0.3 0.6 0  0.35 0.6 0  0.4 0.6 0  0.45 0.6 0  0.5 0.6 0  0.55 0.6 0  0.6 0.6 0  0.65 0.6 0  0.7 0.6 0  0.75 0.6 0  0.8 0.6 0  0.85 0.6 0  0.9 0.6 0  0.95 0.6 0  1 0.6 0  0 0.65 0  0.05 0.65 0  0.1 0.65 0  0.15 0.65 0  0.2 0.65 0  0.25 0.65 0  0.3 0.65 0  0.35 0.65 0  0.4 0.65 0  0.45 0.65 0  0.5 0.65 0  0.55 0.65 0  0.6 0.65 0  0.65 0.65 0  0.7 0.65 0  0.75 0.65 0  0.8 0.65 0  0.85 0.65 0  0.9 0.65 0  0.95 0.65 0  1 0.65 0  0 0.7 0  0.05 0.7 0  0.1 0.7 0  0.15 0.7 0  0.2 0.7 0  0.25 0.7 0  0.3 0.7 0  0.35 0.7 0  0.4 0.7 0  0.45 0.7 0  0.5 0.7 0  0.55 0.7 0  0.6 0.7 0  0.65 0.7 0  0.7 0.7 0  0.75 0.7 0  0.8 0.7 0  0.85 0.7 0  0.9 0.7 0  0.95 0.7 0  1 0.7 0  0 0.75 0  0.05 0.75 0  0.1 0.75 0  0.15 0.75 0  0.2 0.75 0  0.25 0.75 0  0.3 0.75 0  0.35 0.75 0  0.4 0.75 0  0.45 0.75 0  0.5 0.75 0  0.55 0.75 0  0.6 0.75 0  0.65 0.75 0  0.7 0.75 0  0.75 0.75 0  0.8 0.75 0  0.85 0.75 0  0.9 0.75 0  0.95 0.75 0  1 0.75 0  0 0.8 0  0.05 0.8 0  0.1 0.8 0  0.15 0.8 0  0.2 0.8 0  0.25 0.8 0  0.3 0.8 0  0.35 0.8 0  0.4 0.8 0  0.45 0.8 0  0.5 0.8 0  0.55 0.8 0  0.6 0.8 0  0.65 0.8 0  0.7 0.8 0  0.75 0.8 0  0.8 0.8 0  0.85 0.8 0  0.9 0.8 0  0.95 0.8 0  1 0.8 0  0 0.85 0  0.05 0.85 0  0.1 0.85 0  0.15 0.85 0  0.2 0.85 0  0.25 0.85 0  0.3 0.85 0  0.35 0.85 0  0.4 0.85 0  0.45 0.85 0  0.5 0.85 0  0.55 0.85 0  0.6 0.85 0  0.65 0.85 0  0.7 0.85 0  0.75 0.85 0  0.8 0.85 0  0.85 0.85 0  0.9 0.85 0  0.95 0.85 0  1 0.85 0  0 0.9 0  0.05 0.9 0  0.1 0.9 0  0.15 0.9 0  0.2 0.9 0  0.25 0.9 0  0.3 0.9 0  0.35 0.9 0  0.4 0.9 0  0.45 0.9 0  0.5 0.9 0  0.55 0.9 0  0.6 0.9 0  0.65 0.9 0  0.7 0.9 0  0.75 0.9 0  0.8 0.9 0  0.85 0.9 0  0.9 0.9 0  0.95 0.9 0  1 0.9 0  0 0.95 0  0.05 0.95 0  0.1 0.95 0  0.15 0.95 0  0.2 0.95 0  0.25 0.95 0  0.3 0.95 0  0.35 0.95 0  0.4 0.95 0  0.45 0.95 0  0.5 0.95 0  0.55 0.95 0  0.6 0.95 0  0.65 0.95 0  0.7 0.95 0  0.75 0.95 0  0.8 0.95 0  0.85 0.95 0  0.9 0.95 0  0.95 0.95 0  1 0.95 0  0 1 0  0.05 1 0  0.1 1 0  0.15 1 0  0.2 1 0  0.25 1 0  0.3 1 0  0.35 1 0  0.4 1 0  0.45 1 0  0.5 1 0  0.55 1 0  0.6 1 0  0.65 1 0  0.7 1 0  0.75 1 0  0.8 1 0  0.85 1 0  0.9 1 0  0.95 1 0  1 1 0  </DataArray>
</Points>
<Cells>
[...]
<PointData  Scalars="u"> 
<DataArray  type="Float64"  Name="u"  format="ascii">0.0000000000000000e+00  0.0000000000000000e+00  0.0000000000000000e+00  0.0000000000000000e+00  0.0000000000000000e+00  0.0000000000000000e+00  0.0000000000000000e+00  0.0000000000000000e+00  0.0000000000000000e+00  0.0000000000000000e+00  0.0000000000000000e+00  0.0000000000000000e+00  0.0000000000000000e+00  0.0000000000000000e+00  0.0000000000000000e+00  0.0000000000000000e+00  0.0000000000000000e+00  0.0000000000000000e+00  0.0000000000000000e+00  0.0000000000000000e+00  0.0000000000000000e+00  0.0000000000000000e+00  -1.3599264642987626e-03  7.3753130375712192e-03  1.4440807545487461e-02  1.8828377820606128e-02  2.0328940197410071e-02  1.9930282921735737e-02  1.9235207979808322e-02  1.9041149497838136e-02  1.8704104624562162e-02  1.6911723994967778e-02  1.2340360758448115e-02  3.8296254925915948e-03  -8.3528376047489854e-03  -2.0613247084698080e-02  -2.7793871666764357e-02  -2.8164058695703192e-02  -2.3992990937768268e-02  -1.8612695370156640e-02  -1.3331957939737673e-02  -1.0476349162439124e-02  0.0000000000000000e+00  4.0740648742297342e-03  1.4224452487138783e-02  2.4345963962739813e-02  3.1257067281286403e-02  3.4493822392234766e-02  3.5153299700001417e-02  3.4723800303330471e-02  3.3794682039802286e-02  3.1621442055364483e-02  2.6767119667650465e-02  1.7819655747333154e-02  4.1352746295531045e-03  -1.2974632040307046e-02  -2.9618516884532060e-02  -4.0956603984280249e-02  -4.4428640599427256e-02  -4.1294243057802049e-02  -3.4971086169762362e-02  -2.9124266486251396e-02  -2.5948929876958810e-02  0.0000000000000000e+00  9.1441119762391485e-03  2.1219169438499823e-02  3.2492661717095278e-02  4.0529230997527865e-02  4.4892422763525126e-02  4.6341775846155571e-02  4.5948386951173016e-02  4.4052342456690846e-02  3.9950044169577252e-02  3.2427360898359958e-02  2.0503210606087209e-02  4.1647087328614118e-03  -1.4936344230301374e-02  -3.3344697910303416e-02  -4.6939722459847774e-02  -5.3094460093479963e-02  -5.2157175423307486e-02  -4.6948243683514877e-02  -4.1162271346646941e-02  -3.7739265568860890e-02  0.0000000000000000e+00  1.3173659772804458e-02  2.6888565586457334e-02  3.8827541507102402e-02  4.7450580552377490e-02  5.2379417777486781e-02  5.4140850335869149e-02  5.3502052803615037e-02  5.0654334087850292e-02  4.5001307969785180e-02  3.5630238306983350e-02  2.1988012633052893e-02  4.4374355307671845e-03  -1.5340643159244095e-02  -3.4323240535854282e-02  -4.9000181222695734e-02  -5.6953371524459409e-02  -5.8039563690871064e-02  -5.4329706719003758e-02  -4.9138646151843629e-02  -4.6111733739750062e-02  0.0000000000000000e+00  1.5780648709617706e-02  3.0805198207515441e-02  4.3322297212150869e-02  5.2257529351887821e-02  5.7382663815462247e-02  5.9140413930587291e-02  5.8125737012408946e-02  5.4484342777942243e-02  4.7759149481649221e-02  3.7299982433114102e-02  2.2849435146011871e-02  4.9534477012567815e-03  -1.4788485578383017e-02  -3.3722914348386958e-02  -4.8806976266880527e-02  -5.7838786227591907e-02  -6.0430018381342793e-02  -5.8115426374372385e-02  -5.3809082792909503e-02  -5.1306701217423839e-02  0.0000000000000000e+00  1.7271158043208473e-02  3.3136788507087102e-02  4.6009338920539843e-02  5.5068917545817775e-02  6.0207382496886605e-02  6.1826366015187643e-02  6.0447011490208043e-02  5.6237760205139126e-02  4.8879671347504157e-02  3.7920774136657551e-02  2.3284974706857441e-02  5.5877922314185313e-03  -1.3690536422149874e-02  -3.2196982045455159e-02  -4.7241628093136624e-02  -5.6820185733713342e-02  -6.0439915429555825e-02  -5.9278218085287875e-02  -5.5865677739474748e-02  -5.3877055505771453e-02  0.0000000000000000e+00  1.7899565442466334e-02  3.4097250727712379e-02  4.7066380552491092e-02  5.6104731279952760e-02  6.1157790185092577e-02  6.2607278742897246e-02  6.0952868655251569e-02  5.6409499146499897e-02  4.8778413342416775e-02  3.7751071285776830e-02  2.3356331809277108e-02  6.2182060327166631e-03  -1.2309750481162791e-02  -3.0123890248581506e-02  -4.4818125884156568e-02  -5.4565214825426506e-02  -5.8834897447995263e-02  -5.8560056819734162e-02  -5.5937767303066641e-02  -5.4396215490070843e-02  0.0000000000000000e+00  1.7867354981802187e-02  3.3948613982823964e-02  4.6751570715519400e-02  5.5623121037427600e-02  6.0526130006546337e-02  6.1825491936667927e-02  6.0011490422842532e-02  5.5344084885876409e-02  4.7721802211821068e-02  3.6938693837134051e-02  2.3081928671944498e-02  6.7532703833045275e-03  -1.0817654366150582e-02  -2.7742723371452907e-02  -4.1857208029908749e-02  -5.1494724369713182e-02  -5.6121946439519607e-02  -5.6496241354346152e-02  -5.4527990237240448e-02  -5.3350302933449889e-02  0.0000000000000000e+00  1.7336242567598664e-02  3.2926065182261266e-02  4.5318557030701589e-02  5.3885977948881253e-02  5.8589294801983514e-02  5.9769901582300070e-02  5.7905112584859759e-02  5.3287581846864988e-02  4.5889425029642987e-02  3.5577878335136884e-02  2.2470815536945344e-02  7.1328301469802194e-03  -9.3249632975127995e-03  -2.5207633547164838e-02  -3.8565932183838462e-02  -4.7883775263576678e-02  -5.2643166606138748e-02  -5.3468158087631952e-02  -5.2021346520605756e-02  -5.1130276702354809e-02  0.0000000000000000e+00  1.6431454378333796e-02  3.1227988268506243e-02  4.2998606314942532e-02  5.1137142910200030e-02  5.5594286523015644e-02  5.6681762400511392e-02  5.4855283352254050e-02  5.0423810971575611e-02  4.3411546780335493e-02  3.3737864060832685e-02  2.1534708067665241e-02  7.3223464977426990e-03  -7.9011787857774709e-03  -2.2619278775438852e-02  -3.5082204907122515e-02  -4.3917572067834185e-02  -4.8633625398379052e-02  -4.9748585643022647e-02  -4.8708097881989224e-02  -4.8038877007260672e-02  0.0000000000000000e+00  1.5249956898987159e-02  2.9016294657679992e-02  3.9988736258452395e-02  4.7588003102288244e-02  5.1753215893805389e-02  5.2762372170739355e-02  5.1040398726234899e-02  4.6896930136318661e-02  4.0390276937140875e-02  3.1476526467595120e-02  2.0291177759944445e-02  7.3066859874022167e-03  -6.5873839752067309e-03  -2.0042710354612348e-02  -3.1498948625509830e-02  -3.9723578609170487e-02  -4.4258466093409395e-02  -4.5534930183293854e-02  -4.4805601890430431e-02  -4.4306462876833534e-02  0.0000000000000000e+00  1.3866158117183306e-02  2.6419663603573288e-02  3.6450585794986438e-02  4.3415363508604990e-02  4.7243968852331217e-02  4.8178802536878965e-02  4.6606579877420229e-02  4.2824591997399589e-02  3.6910780209444091e-02  2.8846419819478435e-02  1.8763529425476214e-02  7.0849074826932167e-03  -5.4047668071318519e-03  -1.7518435102045909e-02  -2.7878615283787090e-02  -3.5390603876216752e-02  -3.9635418073725635e-02  -4.0971206587436408e-02  -4.0476146669432382e-02  -4.0106660969944669e-02  0.0000000000000000e+00  1.2336501580212064e-02  2.3538501945341357e-02  3.2513547201726188e-02  3.8763362255078357e-02  4.2212961956796663e-02  4.3069080035746436e-02  4.1674982840976794e-02  3.8305521036075860e-02  3.3046977642196142e-02  2.5897127075839133e-02  1.6979524811236095e-02  6.6661701449982078e-03  -4.3604471393641391e-03  -1.5069541586853920e-02  -2.4262124961867273e-02  -3.0980351701981719e-02  -3.4848818420949501e-02  -3.6162853132754913e-02  -3.5840605622752320e-02  -3.5569535498986012e-02  0.0000000000000000e+00  1.0703279010946849e-02  2.0449961677862533e-02  2.8279363312494463e-02  3.3747521208636361e-02  3.6779298313434856e-02  3.7546873806738330e-02  3.6346753519053789e-02  3.3423915754135183e-02  2.8864409488151357e-02  2.2675929649189703e-02  1.4969883021680791e-02  6.0666351559194821e-03  -3.4515336143773664e-03  -1.2706471661856669e-02  -2.0674667506792220e-02  -2.6534799190121743e-02  -2.9958688952150859e-02  -3.1186832400135013e-02  -3.0988607166929756e-02  -3.0791960833250965e-02  0.0000000000000000e+00  8.9977743399017231e-03  1.7212575285455577e-02  2.3827031289166654e-02  2.8459405164448389e-02  3.1039138122601079e-02  3.1705603790437784e-02  3.0706700042278812e-02  2.8252276357348595e-02  2.4421772128585196e-02  1.9227841874395562e-02  1.2766957535612158e-02  5.3071740589298450e-03  -2.6680007335962695e-03  -1.0430344925028985e-02  -1.7129671382650570e-02  -2.2081173505224740e-02  -2.5006907658999579e-02  -2.6098766570501180e-02  -2.5986140473080652e-02  -2.5845609698879217e-02  0.0000000000000000e+00  7.2428468508009859e-03  1.3870315214010191e-02  1.9217390746561556e-02  2.2971158042700651e-02  2.5069892962011526e-02  2.5622116146487635e-02  2.4826261149465092e-02  2.2853457594960953e-02  1.9771901511904038e-02  1.5595513455989590e-02  1.0403720422330570e-02  4.4117033473335355e-03  -1.9947664526406162e-03  -8.2353695363229940e-03  -1.3631668461226740e-02  -1.7635506193980421e-02  -2.0021625044030388e-02  -2.0938156960018158e-02  -2.0881310130757644e-02  -2.0783090506910466e-02  0.0000000000000000e+00  5.4550594611513575e-03  1.0456054188273129e-02  1.4497197560152053e-02  1.7339656248926538e-02  1.8934081632753265e-02  1.9359986777937543e-02  1.8766082516036862e-02  1.7282404595679503e-02  1.4962629584982855e-02  1.1819263275444206e-02  7.9131210736989345e-03  3.4060494883840658e-03  -1.4131814352525101e-03  -6.1106420616328016e-03  -1.0178479461683425e-02  -1.3205372088385318e-02  -1.5020678326895917e-02  -1.5732426703242645e-02  -1.5708822499267080e-02  -1.5642727732654516e-02  0.0000000000000000e+00  3.6464733637291357e-03  6.9944217870927762e-03  9.7026025609843209e-03  1.1610161711234950e-02  1.2682784029887158e-02  1.2972516214378412e-02  1.2578350358652153e-02  1.1587728724770499e-02  1.0037596986407334e-02  7.9372008224959517e-03  5.3276337635343694e-03  2.3170569151413248e-03  -9.0224498782406502e-04  -4.0416262605941578e-03  -6.7629880119369030e-03  -8.7920291170784943e-03  -1.0014114224145639e-02  -1.0499877072885869e-02  -1.0493353494482953e-02  -1.0452319988845566e-02  0.0000000000000000e+00  1.8256599592723394e-03  3.5041252731861329e-03  4.8623254304622620e-03  5.8197092747114369e-03  6.3589575093655933e-03  6.5055476400878937e-03  6.3090401633488493e-03  5.8133613631099713e-03  5.0373457025859568e-03  3.9858074323317946e-03  2.6794434386966143e-03  1.1724667396642121e-03  -4.3903986014421270e-04  -2.0109779906232815e-03  -3.3744473924502342e-03  -4.3922658413697163e-03  -5.0067838945663575e-03  -5.2530725214347896e-03  -5.2529784581292482e-03  -5.2328553296054374e-03  0.0000000000000000e+00  0.0000000000000000e+00  0.0000000000000000e+00  0.0000000000000000e+00  0.0000000000000000e+00  0.0000000000000000e+00  0.0000000000000000e+00  0.0000000000000000e+00  0.0000000000000000e+00  0.0000000000000000e+00  0.0000000000000000e+00  0.0000000000000000e+00  0.0000000000000000e+00  0.0000000000000000e+00  0.0000000000000000e+00  0.0000000000000000e+00  0.0000000000000000e+00  0.0000000000000000e+00  0.0000000000000000e+00  0.0000000000000000e+00  0.0000000000000000e+00  </DataArray> 
</PointData> 
</Piece>
</UnstructuredGrid>
</VTKFile>