<?xml version="1.0"?>
<VTKFile type="UnstructuredGrid"  version="0.1"  >
<UnstructuredGrid>
<Piece  NumberOfPoints="441" NumberOfCells="800">
<Points>
<DataArray  type="Float64"  NumberOfComponents="3"  format="ascii">0 0 0  0.05 0 0  0.1 0 0  0.15 0 0  0.2 0 0  0.25 0 0  0.3 0 0  0.35 0 0  0.4 0 0  0.45 0 0  0.5 0 0  0.55 0 0  0.6 0 0  0.65 0 0  0.7 0 0  0.75 0 0  0.8 0 0  0.85 0 0  0.9 0 0  0.95 0 0  1 0 0  0 0.05 0  0.05 0.05 0  0.1 0.05 0  0.15 0.05 0  0.2 0.05 0  0.25 0.05 0  0.3 0.05 0  0.35 0.05 0  0.4 0.05 0  0.45 0.05 0  0.5 0.05 0  0.55 0.05 0  0.6 0.05 0  0.65 0.05 0  0.7 0.05 0  0.75 0.05 0  0.8 0.05 0  0.85 0.05 0  0.9 0.05 0  0.95 0.05 0  1 0.05 0  0 0.1 0  0.05 0.1 0  0.1 0.1 0  0.15 0.1 0  0.2 0.1 0  0.25 0.1 0  0.3 0.1 0  0.35 0.1 0  0.4 0.1 0  0.45 0.1 0  0.5 0.1 0  0.55 0.1 0  0.6 0.1 0  0.65 0.1 0  0.7 0.1 0  0.75 0.1 0  0.8 0.1 0  0.85 0.1 0  0.9 0.1 0  0.95 0.1 0  1 0.1 0  0 0.15 0  0.05 0.15 0  0.1 0.15 0  0.15 0.15 0  0.2 0.15 0  0.25 0.15 0  0.3 0.15 0  0.35 0.15 0  0.4 0.15 0  0.45 0.15 0  0.5 0.15 0  0.55 0.15 0  0.6 0.15 0  0.65 0.15 0  0.7 0.15 0  0.75 0.15 0  0.8 0.15 0  0.85 0.15 0  0.9 0.15 0  0.95 0.15 0  1 0.15 0  0 0.2 0  0.05 0.2 0  0.1 0.2 0  0.15 0.2 0  0.2 0.2 0  0.25 0.2 0  0.3 0.2 0  0.35 0.2 0  0.4 0.2 0  0.45 0.2 0  0.5 0.2 0  0.55 0.2 0  0.6 0.2 0  0.65 0.2 0  0.7 0.2 0  0.75 0.2 0  0.8 0.2 0  0.85 0.2 0  0.9 0.2 0  0.95 0.2 0  1 0.2 0  0 0.25 0  0.05 0.25 0  0.1 0.25 0  0.15 0.25 0  0.2 0.25 0  0.25 0.25 0  0.3 0.25 0  0.35 0.25 0  0.4 0.25 0  0.45 0.25 0  0.5 0.25 0  0.55 0.25 0  0.6 0.25 0  0.65 0.25 0  0.7 0.25 0  0.75 0.25 0  0.8 0.25 0  0.85 0.25 0  0.9 0.25 0  0.95 0.25 0  1 0.25 0  0 0.3 0  0.05 0.3 0  0.1 0.3 0  0.15 0.3 0  0.2 0.3 0  0.25 0.3 0  0.3 0.3 0  0.35 0.3 0  0.4 0.3 0  0.45 0.3 0  0.5 0.3 0  0.55 0.3 0  0.6 0.3 0  0.65 0.3 0  0.7 0.3 0  0.75 0.3 0  0.8 0.3 0  0.85 0.3 0  0.9 0.3 0  0.95 0.3 0  1 0.3 0  0 0.35 0  0.05 0.35 0  0.1 0.35 0  0.15 0.35 0  0.2 0.35 0  0.25 0.35 0  0.3 0.35 0  0.35 0.35 0  0.4 0.35 0  0.45 0.35 0  0.5 0.35 0  0.55 0.35 0  0.6 0.35 0  0.65 0.35 0  0.7 0.35 0  0.75 0.35 0  0.8 0.35 0  0.85 0.35 0  0.9 0.35 0  0.95 0.35 0  1 0.35 0  0 0.4 0  0.05 0.4 0  0.1 0.4 0  0.15 0.4 0  0.2 0.4 0  0.25 0.4 0  0.3 0.4 0  0.35 0.4 0  0.4 0.4 0  0.45 0.4 0  0.5 0.4 0  0.55 0.4 0  0.6 0.4 0  0.65 0.4 0  0.7 0.4 0  0.75 0.4 0  0.8 0.4 0  0.85 0.4 0  0.9 0.4 0  0.95 0.4 0  1 0.4 0  0 0.45 0  0.05 0.45 0  0.1 0.45 0  0.15 0.45 0  0.2 0.45 0  0.25 0.45 0  0.3 0.45 0  0.35 0.45 0  0.4 0.45 0  0.45 0.45 0  0.5 0.45 0  0.55 0.45 0  0.6 0.45 0  0.65 0.45 0  0.7 0.45 0  0.75 0.45 0  0.8 0.45 0  0.85 0.45 0  0.9 0.45 0  0.95 0.45 0  1 0.45 0  0 0.5 0  0.05 0.5 0  0.1 0.5 0  0.15 0.5 0  0.2 0.5 0  0.25 0.5 0  0.3 0.5 0  0.35 0.5 0  0.4 0.5 0  0.45 0.5 0  0.5 0.5 0  0.55 0.5 0  0.6 0.5 0  0.65 0.5 0  0.7 0.5 0  0.75 0.5 0  0.8 0.5 0  0.85 0.5 0  0.9 0.5 0  0.95 0.5 0  1 0.5 0  0 0.55 0  0.05 0.55 0  0.1 0.55 0  0.15 0.55 0  0.2 0.55 0  0.25 0.55 0  0.3 0.55 0  0.35 0.55 0  0.4 0.55 0  0.45 0.55 0  0.5 0.55 0  0.55 0.55 0  0.6 0.55 0  0.65 0.55 0  0.7 0.55 0  0.75 0.55 0  0.8 0.55 0  0.85 0.55 0  0.9 0.55 0  0.95 0.55 0  1 0.55 0  0 0.6 0  0.05 0.6 0  0.1 0.6 0  0.15 0.6 0  0.2 0.6 0  0.25 0.6 0  0.3 0.6 0  0.35 0.6 0  0.4 0.6 0  0.45 0.6 0  0.5 0.6 0  0.55 0.6 0  0.6 0.6 0  0.65 0.6 0  0.7 0.6 0  0.75 0.6 0  0.8 0.6 0  0.85 0.6 0  0.9 0.6 0  0.95 0.6 0  1 0.6 0  0 0.65 0  0.05 0.65 0  0.1 0.65 0  0.15 0.65 0  0.2 0.65 0  0.25 0.65 0  0.3 0.65 0  0.35 0.65 0  0.4 0.65 0  0.45 0.65 0  0.5 0.65 0  0.55 0.65 0  0.6 0.65 0  0.65 0.65 0  0.7 0.65 0  0.75 0.65 0  0.8 0.65 0  0.85 0.65 0  0.9 0.65 0  0.95 0.65 0  1 0.65 0  0 0.7 0  0.05 0.7 0  0.1 0.7 0  0.15 0.7 0  0.2 0.7 0  0.25 0.7 0  0.3 0.7 0  0.35 0.7 0  0.4 0.7 0  0.45 0.7 0  0.5 0.7 0  0.55 0.7 0  0.6 0.7 0  0.65 0.7 0  0.7 0.7 0  0.75 0.7 0  0.8 0.7 0  0.85 0.7 0  0.9 0.7 0  0.95 0.7 0  1 0.7 0  0 0.75 0  0.05 0.75 0  0.1 0.75 0  0.15 0.75 0  0.2 0.75 0  0.25 0.75 0  0.3 0.75 0  0.35 0.75 0  0.4 0.75 0  0.45 0.75 0  0.5 0.75 0  0.55 0.75 0  0.6 0.75 0  0.65 0.75 0  0.7 0.75 0  0.75 0.75 0  0.8 0.75 0  0.85 0.75 0  0.9 0.75 0  0.95 0.75 0  1 0.75 0  0 0.8 0  0.05 0.8 0  0.1 0.8 0  0.15 0.8 0  0.2 0.8 0  0.25 0.8 0  0.3 0.8 0  0.35 0.8 0  0.4 0.8 0  0.45 0.8 0  0.5 0.8 0  0.55 0.8 0  0.6 0.8 0  0.65 0.8 0  0.7 0.8 0  0.75 0.8 0  0.8 0.8 0  0.85 0.8 0  0.9 0.8 0  0.95 0.8 0  1 0.8 0  0 0.85 0  0.05 0.85 0  0.1 0.85 0  0.15 0.85 0  0.2 0.85 0  0.25 0.85 0  0.3 0.85 0  0.35 0.85 0  0.4 0.85 0  0.45 0.85 0  0.5 0.85 0  0.55 0.85 0  0.6 0.85 0  0.65 0.85 0  0.7 0.85 0  0.75 0.85 0  0.8 0.85 0  0.85 0.85 0  0.9 0.85 0  0.95 0.85 0  1 0.85 0  0 0.9 0  0.05 0.9 0  0.1 0.9 0  0.15 0.9 0  0.2 0.9 0  0.25 0.9 0  0.3 0.9 0  0.35 0.9 0  0.4 0.9 0  0.45 0.9 0  0.5 0.9 0  0.55 0.9 0  0.6 0.9 0  0.65 0.9 0  0.7 0.9 0  0.75 0.9 0  0.8 0.9 0  0.85 0.9 0  0.9 0.9 0  0.95 0.9 0  1 0.9 0  0 0.95 0  0.05 0.95 0  0.1 0.95 0  0.15 0.95 0  0.2 0.95 0  0.25 0.95 0  0.3 0.95 0  0.35 0.95 0  0.4 0.95 0  0.45 0.95 0  0.5 0.95 0  0.55 0.95 0  0.6 0.95 0  0.65 0.95 0  0.7 0.95 0  0.75 0.95 0  0.8 0.95 0  0.85 0.95 0  0.9 0.95 0  0.95 0.95 0  1 0.95 0  0 1 0  0.05 1 0  0.1 1 0  0.15 1 0  0.2 1 0  0.25 1 0  0.3 1 0  0.35 1 0  0.4 1 0  0.45 1 0  0.5 1 0  0.55 1 0  0.6 1 0  0.65 1 0  0.7 1 0  0.75 1 0  0.8 1 0  0.85 1 0  0.9 1 0  0.95 1 0  1 1 0  </DataArray>
</Points>
<Cells>
[...]
<PointData  Scalars="u"> 
<DataArray  type="Float64"  Name="u"  format="ascii">0.0000000000000000e+00  0.0000000000000000e+00  0.0000000000000000e+00  0.0000000000000000e+00  0.0000000000000000e+00  0.0000000000000000e+00  0.0000000000000000e+00  0.0000000000000000e+00  0.0000000000000000e+00  0.0000000000000000e+00  0.0000000000000000e+00  0.0000000000000000e+00  0.0000000000000000e+00  0.0000000000000000e+00  0.0000000000000000e+00  0.0000000000000000e+00  0.0000000000000000e+00  0.0000000000000000e+00  0.0000000000000000e+00  0.0000000000000000e+00  0.0000000000000000e+00  9.7500000000000003e-02  8.3148603527901821e-02  8.0907428066161510e-02  8.7248118635621083e-02  9.4959660618600533e-02  1.0163596884593162e-01  1.0556389357706678e-01  1.0697325717703339e-01  1.0815501228120880e-01  1.1144643715182030e-01  1.1748646469644883e-01  1.2525055162925633e-01  1.3220085935708697e-01  1.3398638068965710e-01  1.2655356470695270e-01  1.1088739730338888e-01  9.2971730827348067e-02  7.8884586066074444e-02  7.0411492228415209e-02  7.4072383237570774e-02  8.7119031220877829e-02  1.9000000000000003e-01  1.7641047918071584e-01  1.7128185048275998e-01  1.7858028117332772e-01  1.8844462272821463e-01  1.9769296369131323e-01  2.0401375337933453e-01  2.0783354016228955e-01  2.1171992345779439e-01  2.1812237422626621e-01  2.2745956684063062e-01  2.3795530516865873e-01  2.4605293750983231e-01  2.4694961221581177e-01  2.3681204256599306e-01  2.1629327496491865e-01  1.9111438720265689e-01  1.6903314001206610e-01  1.5453575272835846e-01  1.5454479678909025e-01  1.6550825909481801e-01  2.7749999999999991e-01  2.6572046891860673e-01  2.6144144061767971e-01  2.6867624000511325e-01  2.7884669785896521e-01  2.8904107744410090e-01  2.9689522091668252e-01  3.0280846452123683e-01  3.0898319358742249e-01  3.1739417459367819e-01  3.2804409025738762e-01  3.3885257167512944e-01  3.4629914415233859e-01  3.4615313273416126e-01  3.3517473148992788e-01  3.1374407616597333e-01  2.8663715866026368e-01  2.6123940177464555e-01  2.4275632679243175e-01  2.3873526248516122e-01  2.4600008453295061e-01  3.6000000000000004e-01  3.5013841413613478e-01  3.4731710301287316e-01  3.5464370587187211e-01  3.6485717897133790e-01  3.7542958246743424e-01  3.8424961877206681e-01  3.9162200318645668e-01  3.9928810240575685e-01  4.0870605872433519e-01  4.1956322378604505e-01  4.2978846353527783e-01  4.3624201082495273e-01  4.3535486742225177e-01  4.2442076948940838e-01  4.0367340701694748e-01  3.7702583825621289e-01  3.5096817468021568e-01  3.3062467455658429e-01  3.2367814866938810e-01  3.2760030223510395e-01  4.3750000000000006e-01  4.2932960749831151e-01  4.2785133784913060e-01  4.3541488541027190e-01  4.4565017096894394e-01  4.5638324053165602e-01  4.6579110539445129e-01  4.7406475966869238e-01  4.8254923082518497e-01  4.9229222666408207e-01  5.0281147650310520e-01  5.1219103431842272e-01  5.1772208050444779e-01  5.1641225339868446e-01  5.0599028294268567e-01  4.8660358688379279e-01  4.6149375342139942e-01  4.3625931568772236e-01  4.1561182738313812e-01  4.0688187381308266e-01  4.0812047448813710e-01  5.0999999999999990e-01  5.0327760317215886e-01  5.0290998441732493e-01  5.1065582088938288e-01  5.2085578433566804e-01  5.3161590888873411e-01  5.4133436809419055e-01  5.5009861391768766e-01  5.5894051790607202e-01  5.6860860676600289e-01  5.7855609721102252e-01  5.8707239767576458e-01  5.9184435672803970e-01  5.9035640347551444e-01  5.8069406650371658e-01  5.6296096957656594e-01  5.3987827990783088e-01  5.1624795636276344e-01  4.9626577582830250e-01  4.8662750787190051e-01  4.8582643427704786e-01  5.7750000000000001e-01  5.7203003168588251e-01  5.7252955466908773e-01  5.8031771369193230e-01  5.9038155732509423e-01  6.0103795484974920e-01  6.1085329717501491e-01  6.1982649239049037e-01  6.2873874167179622e-01  6.3812183035360615e-01  6.4742434484416500e-01  6.5514653522835431e-01  6.5931933997648473e-01  6.5782310299543656e-01  6.4904500072075355e-01  6.3307034978749621e-01  6.1220359730311691e-01  5.9055177795248837e-01  5.7178656990639976e-01  5.6184255961091878e-01  5.5955252314130166e-01  6.4000000000000012e-01  6.3561792832444730e-01  6.3677452992051253e-01  6.4445772714822547e-01  6.5426670980475710e-01  6.6469234105239183e-01  6.7444062947618522e-01  6.8343310192790863e-01  6.9224524547121824e-01  7.0124631105114321e-01  7.0990834777626000e-01  7.1692916985961064e-01  7.2063558095359981e-01  7.1924232160906076e-01  7.1139728826601212e-01  6.9718234092036180e-01  6.7855815282465060e-01  6.5902446032404338e-01  6.4175654420165662e-01  6.3189928147820196e-01  6.2855103317249317e-01  6.9750000000000012e-01  6.9406572222894880e-01  6.9570840103569020e-01  7.0316049795814783e-01  7.1260558167468924e-01  7.2269232127532668e-01  7.3225063382188305e-01  7.4113529409616208e-01  7.4974957609264303e-01  7.5833411562511999e-01  7.6639441724345891e-01  7.7280592081464683e-01  7.7614996619419629e-01  7.7492792125610988e-01  7.6801597113298037e-01  7.5550089428932543e-01  7.3905297870220654e-01  7.2163908407364596e-01  7.0597930575979295e-01  6.9645267880716633e-01  6.9237072299202596e-01  7.4999999999999989e-01  7.4739171973097063e-01  7.4938511647159389e-01  7.5651188743718090e-01  7.6550975003565380e-01  7.7517668211831292e-01  7.8445740624760674e-01  7.9315083374147355e-01  8.0151375356910115e-01  8.0968024258880134e-01  8.1719030984252872e-01  8.2307563191705224e-01  8.2613694668214510e-01  8.2512346994674768e-01  8.1911227982814261e-01  8.0819945307851182e-01  7.9380642321367489e-01  7.7843185912509472e-01  7.6438551239892172e-01  7.5533098708819058e-01  7.5075428988449133e-01  7.9749999999999988e-01  7.9560991141766924e-01  7.9784946395200518e-01  8.0459013238984711e-01  8.1308824271979296e-01  8.2228410652466655e-01  8.3123064362916288e-01  8.3968110926836226e-01  8.4776676346348812e-01  8.5553095787203459e-01  8.6254531133464218e-01  8.6797710294952823e-01  8.7081617497512986e-01  8.7002663775562850e-01  8.6486216043670128e-01  8.5543007163879514e-01  8.4293712060248749e-01  8.2947146387991511e-01  8.1697720113202943e-01  8.0846574451388986e-01  8.0356743489795235e-01  8.4000000000000008e-01  8.3873122539409184e-01  8.4113804552758009e-01  8.4746252531176547e-01  8.5543861000539223e-01  8.6414072695620192e-01  8.7272340927442515e-01  8.8090332762850809e-01  8.8870426557760474e-01  8.9609146834211384e-01  9.0266392110646376e-01  9.0770544150527466e-01  9.1036833828337727e-01  9.0980254474276956e-01  9.0541604976092638e-01  8.9732790238094806e-01  8.8655959930980877e-01  8.7484139554922724e-01  8.6379495352693159e-01  8.5584848592346841e-01  8.5075193737285759e-01  8.7750000000000006e-01  8.7676419803851879e-01  8.7928030425567516e-01  8.8518492078225131e-01  8.9264383111770185e-01  9.0085514166423097e-01  9.0906737744869082e-01  9.1696841218877367e-01  9.2449065583648105e-01  9.3153220230955602e-01  9.3771502907740389e-01  9.4242212035102857e-01  9.4494437194194203e-01  9.4459117433359485e-01  9.4090400030558807e-01  9.3401318070587580e-01  9.2478122547875496e-01  9.1462935285251079e-01  9.0489821938061243e-01  8.9750404325842226e-01  8.9229523846821324e-01  9.1000000000000003e-01  9.0971545005438381e-01  9.1229953868553426e-01  9.1780244659954202e-01  9.2477209582555875e-01  9.3251751984335440e-01  9.4037223978946960e-01  9.4800183979910624e-01  9.5526204030881612e-01  9.6199383569783681e-01  9.6783814586959893e-01  9.7226127589077083e-01  9.7467092880399986e-01  9.7451155268109879e-01  9.7143835252372035e-01  9.6559196002521130e-01  9.5769998055660399e-01  9.4892064398459475e-01  9.4035334921042057e-01  9.3347400426374261e-01  9.2821082759422435e-01  9.3749999999999989e-01  9.3759005104438231e-01  9.4021386060709755e-01  9.4535073304814154e-01  9.5187796303562267e-01  9.5920069749614123e-01  9.6672709422440317e-01  9.7410578614814081e-01  9.8112939171649249e-01  9.8759130108895787e-01  9.9314774887237467e-01  9.9733378012131380e-01  9.9965372534850405e-01  9.9966416336294728e-01  9.9711513661480788e-01  9.9215628823659374e-01  9.8540286282765088e-01  9.7779401405299737e-01  9.7022618415011275e-01  9.6380632691441503e-01  9.5852554736196727e-01  9.5999999999999996e-01  9.6039181284665764e-01  9.6303706760993157e-01  9.6785727864679327e-01  9.7400402198399982e-01  9.8096204703812173e-01  9.8820258998778132e-01  9.9536166499286538e-01  1.0021815013231379e+00  1.0084169854112257e+00  1.0137364139942553e+00  1.0177299812601188e+00  1.0199796770823473e+00  1.0201324036830861e+00  1.0180148351846194e+00  1.0137841803358121e+00  1.0079647679464032e+00  1.0013189687947366e+00  9.9457738143554997e-01  9.8854871368368646e-01  9.8327129346273257e-01  9.7749999999999992e-01  9.7812352302057326e-01  9.8077939608748532e-01  9.8534273649662940e-01  9.9118259290600097e-01  9.9784547449305872e-01  1.0048531651195298e+00  1.0118325690761656e+00  1.0184875434133536e+00  1.0245432660698441e+00  1.0296771286096955e+00  1.0335216215967375e+00  1.0357183288162308e+00  1.0359835141902269e+00  1.0342028330464530e+00  1.0305395455572173e+00  1.0254477174636565e+00  1.0195540367264893e+00  1.0134594144843845e+00  1.0077443238031440e+00  1.0024795442728123e+00  9.8999999999999999e-01  9.9078712820463233e-01  9.9344811204966377e-01  9.9782203025403526e-01  1.0034372378395442e+00  1.0098832237837168e+00  1.0167190440331750e+00  1.0235653734622372e+00  1.0300991762439025e+00  1.0360244856263783e+00  1.0410250133397834e+00  1.0447632134285576e+00  1.0469228485830278e+00  1.0472692067675307e+00  1.0457297196160626e+00  1.0424721241790087e+00  1.0379003724234410e+00  1.0325456733056049e+00  1.0269146729505518e+00  1.0214289487132475e+00  1.0161776846987507e+00  9.9750000000000005e-01  9.9838368697963176e-01  1.0010481370037445e+00  1.0053052586929818e+00  1.0107840022045798e+00  1.0170973042492326e+00  1.0238278290161995e+00  1.0305923888780730e+00  1.0370521675242841e+00  1.0428984327417044e+00  1.0478185818034840e+00  1.0514930323680098e+00  1.0536307369466320e+00  1.0540261124935077e+00  1.0526314966114134e+00  1.0496174283351876e+00  1.0453577549085420e+00  1.0403273984941483e+00  1.0349743197017216e+00  1.0296291329172693e+00  1.0243866500518810e+00  1.0000000000000000e+00  1.0009151902079094e+00  1.0035814724657208e+00  1.0077986282708997e+00  1.0132319258407816e+00  1.0195005514201232e+00  1.0261956567142656e+00  1.0329326661357630e+00  1.0393675482733777e+00  1.0451873011361339e+00  1.0500805493747569e+00  1.0537337372894582e+00  1.0558641860991866e+00  1.0562759689573744e+00  1.0549297136255542e+00  1.0519968930098818e+00  1.0478412704602698e+00  1.0429193049836498e+00  1.0376584329906382e+00  1.0323608805415188e+00  1.0271197282843616e+00  </DataArray> 
</PointData> 
</Piece>
</UnstructuredGrid>
</VTKFile>